                  Welcome to Q-Chem
     A Quantum Leap Into The Future Of Chemistry

 J. Kong, C. A. White, A. I. Krylov, C. D. Sherrill,
 R. D. Adamson, T. R. Furlani, M. S. Lee, A. M. Lee,
 S. R. Gwaltney, T. R. Adams, C. Ochsenfeld, A. T. B. Gilbert,
 G. S. Kedziora,  V. A. Rassolov, D. R. Maurice, N. Nair,
 Y. Shao, N. A. Besley, P. E. Maslen, J. P. Dombroski,
 H. Dachsel, W. M. Zhang, P. P. Korambath, J. Baker,
 E. F. C. Byrd, T. Van Voorhis, M. Oumi, S. Hirata,
 C. P. Hsu, N. Ishikawa, J. Florian, A. Warshel,
 B. G. Johnson, P. M. W. Gill, M. Head-Gordon, J. A. Pople,
 Q-Chem, Version 2.0, Q-Chem, Inc., Export, PA (2000).


 Intel x86 Linux Version

--------------------------------------------------------------
User input:
--------------------------------------------------------------
$molecule
0 1
O     0.000000     0.000000     0.000000
H     0.000000     0.000000     0.950000
H     0.895669     0.000000    -0.316667
$end

$rem
EXCHANGE	B3LYP
CORRELATION	None
BASIS		6-31G*
JOBTYPE		OPT
SCF_PRINT	0
PRINT_ORBITALS	FALSE		
SCF_FINAL_PRINT	0
MEM_TOTAL	3000
MEM_STATIC	128	
GEOM_OPT_PRINT  3	
$end

--------------------------------------------------------------
 ----------------------------------------------------
       Standard Nuclear Orientation (Angstroms)
    I     Atom         X            Y            Z
 ----------------------------------------------------
    1      O       0.000000     0.000000     0.109697
    2      H      -0.775672     0.000000    -0.438787
    3      H       0.775672     0.000000    -0.438786
 ----------------------------------------------------
 Molecular Point Group                 C2v   NOp =  4
 Largest Abelian Subgroup              C2v   NOp =  4
 Nuclear Repulsion Energy =     9.2535654934 hartrees
 There are        5 alpha and        5 beta electrons
 Requested basis set is 6-31G(d)
 There are 8 shells and 19 basis functions
 Standard Electronic Orientation quadrupole field applied
 A cutoff of  1.0D-11 yielded     36 shell pairs
 There are    217 function pairs
 Smallest overlap matrix eigenvalue = 2.21E-02
 Multipole matrices computed through 2nd order
 Guess from superposition of atomic densities
 Warning:  Energy on first SCF cycle will be non-variational
 A restricted hybrid HF-DFT SCF calculation will be
 performed using Pulay DIIS extrapolation
 Exchange:     0.2000 Hartree-Fock + 0.0800 Slater + 0.7200 Becke
 Correlation:  0.8100 LYP + 0.1900 VWN1RPA
 Using SG-0 standard quadrature grid for H, C, N and O
 Using SG-1 standard quadrature grid for other elements
 SCF converges when DIIS error is below 1.0E-08
 ---------------------------------------
  Cycle       Energy         DIIS Error
 ---------------------------------------
    1     -76.4069609778      1.68E-01
    2     -76.3384590735      4.56E-02
    3     -76.3085141642      5.57E-02
    4     -76.4074892341      1.16E-03
    5     -76.4075345644      1.97E-04
    6     -76.4075357771      2.20E-05
    7     -76.4075357919      3.61E-07
    8     -76.4075357918      2.82E-08
    9     -76.4075357917      2.18E-09 Convergence criterion met
 ---------------------------------------
 SCF time:  CPU 0.46 s  wall 0.00 s
 Analysis of SCF Wavefunction
 
 --------------------------------------------------------------
             Orbital Energies (a.u.) and Symmetries
 --------------------------------------------------------------
 
 Alpha MOs, Restricted
 -- Occupied --                  
-19.132  -1.001  -0.534  -0.362  -0.290
  1 A1    2 A1    1 B1    3 A1    1 B2                                         
 -- Virtual --                   
  0.068   0.156   0.806   0.860   0.892   0.892   1.076   1.178
  4 A1    2 B1    3 B1    5 A1    6 A1    2 B2    4 B1    7 A1                 
  1.738   1.743   1.784   2.311   2.611   3.572
  1 A2    8 A1    3 B2    9 A1    5 B1   10 A1                                 
 
 Beta MOs, Restricted
 -- Occupied --                  
-19.132  -1.001  -0.534  -0.362  -0.290
  1 A1    2 A1    1 B1    3 A1    1 B2                                         
 -- Virtual --                   
  0.068   0.156   0.806   0.860   0.892   0.892   1.076   1.178
  4 A1    2 B1    3 B1    5 A1    6 A1    2 B2    4 B1    7 A1                 
  1.738   1.743   1.784   2.311   2.611   3.572
  1 A2    8 A1    3 B2    9 A1    5 B1   10 A1                                 
 --------------------------------------------------------------
 
         Mulliken Net Atomic Charges

     Atom                 Charge (a.u.)
  ----------------------------------------
      1 O                    -0.788651
      2 H                     0.394326
      3 H                     0.394325
  ----------------------------------------
  Sum of atomic charges =     0.000000

 -----------------------------------------------------------------
                    Cartesian Multipole Moments
 -----------------------------------------------------------------
    Charge (ESU x 10^10)
                 0.0000
    Dipole Moment (Debye)
         X       0.0000      Y       0.0000      Z      -1.9968
       Tot       1.9968
    Quadrupole Moments (Debye-Ang)
        XX      -4.0575     XY       0.0000     YY      -7.1662
        XZ       0.0000     YZ       0.0000     ZZ      -6.1250
    Octapole Moments (Debye-Ang^2)
       XXX       0.0000    XXY       0.0000    XYY       0.0000
       YYY       0.0000    XXZ      -1.1925    XYZ       0.0000
       YYZ      -0.3223    XZZ       0.0000    YZZ       0.0000
       ZZZ      -1.1449
    Hexadecapole Moments (Debye-Ang^3)
      XXXX      -5.7170   XXXY       0.0000   XXYY      -2.0801
      XYYY       0.0000   YYYY      -5.1718   XXXZ       0.0000
      XXYZ       0.0000   XYYZ       0.0000   YYYZ       0.0000
      XXZZ      -1.7276   XYZZ       0.0000   YYZZ      -1.9081
      XZZZ       0.0000   YZZZ       0.0000   ZZZZ      -6.0623
 -----------------------------------------------------------------
 Calculating analytic gradient of the SCF energy
 Gradient of SCF Energy
            1           2           3
    1   0.0000037   0.0085440  -0.0085477
    2  -0.0000000   0.0000000   0.0000000
    3  -0.0328919   0.0164479   0.0164440
 Max gradient component =       3.289E-02
 RMS gradient           =       1.402E-02
 Gradient time:  CPU 0.21 s  wall 1.00 s


** GEOMETRY OPTIMIZATION IN DELOCALIZED INTERNAL COORDINATES **
   Searching for a Minimum

   Optimization Cycle:   1

                       Coordinates (Angstroms)
     ATOM              X           Y           Z
    1  O           0.000000    0.000000    0.109697
    2  H          -0.775672    0.000000   -0.438786
    3  H           0.775672    0.000000   -0.438786
   Point Group: c2v   Number of degrees of freedom:   2


   Energy is    -76.407535792


                       Cartesian Gradient (au)
     ATOM              X           Y           Z
    1  O           0.000000    0.000000   -0.032892
    2  H           0.008546    0.000000    0.016446
    3  H          -0.008546    0.000000    0.016446

 Attempting to Generate Delocalized Internal Coordinates
 There are      3 Primitive Internals

 There are      0 Redundant primitive internals
 Eliminated     1 Coordinates due to Symmetry
 Setting Up Default Hessian

  2 Hessian modes will be used to form the next step
  Hessian Eigenvalues:
     0.160000    0.576811

 Minimum Search - Taking Simple RFO Step
 Searching for Lamda that Minimizes Along All modes
 Value Taken    Lamda =  -0.00236914
 Step Taken.  Stepsize is  0.102166


     Parameter Values and Displacements in Internal Coordinates
  Coordinate  Current Value    Gradient  Displacement   New Value
       1           3.105425    -0.003685    -0.044792     3.060633
       2          -0.672780     0.027598    -0.091824    -0.764604

                             Maximum     Tolerance    Cnvgd?
         Gradient           0.027598      0.000300      NO
         Displacement       0.091824      0.001200      NO
         Energy change     *********      0.000001      NO


 New Cartesian Coordinates Obtained by Inverse Iteration
     Cycle:   1  Maximum deviation:   0.09182412
     Cycle:   2  Maximum deviation:   0.00295829
     Cycle:   3  Maximum deviation:   0.00000164
     Cycle:   4  Maximum deviation:   0.00000000

 Displacement from previous Coordinates is:  0.079905
 ----------------------------------------------------
       Standard Nuclear Orientation (Angstroms)
    I     Atom         X            Y            Z
 ----------------------------------------------------
    1      O       0.000000     0.000000     0.139738
    2      H      -0.760938     0.000000    -0.453807
    3      H       0.760938     0.000000    -0.453807
 ----------------------------------------------------
 Molecular Point Group                 C2v   NOp =  4
 Largest Abelian Subgroup              C2v   NOp =  4
 Nuclear Repulsion Energy =     9.1211748180 hartrees
 There are        5 alpha and        5 beta electrons
 Applying Cartesian multipole field
    Component          Value
    ---------          -----
     (2,0,0)        1.00000E-10
     (0,2,0)        2.00000E-10
     (0,0,2)       -3.00000E-10
 Nucleus-field energy     =    -0.0000000002 hartrees
 Requested basis set is 6-31G(d)
 There are 8 shells and 19 basis functions
 A cutoff of  1.0D-11 yielded     36 shell pairs
 There are    217 function pairs
 Smallest overlap matrix eigenvalue = 2.26E-02
 Multipole matrices computed through 2nd order
 Guess MOs from SCF MO coefficient file
 A restricted hybrid HF-DFT SCF calculation will be
 performed using Pulay DIIS extrapolation
 Exchange:     0.2000 Hartree-Fock + 0.0800 Slater + 0.7200 Becke
 Correlation:  0.8100 LYP + 0.1900 VWN1RPA
 Using SG-0 standard quadrature grid for H, C, N and O
 Using SG-1 standard quadrature grid for other elements
 SCF converges when DIIS error is below 1.0E-08
 Warning!  Inaccurate integrated density:
   Number of electrons =    10
   Numerical integral  =     9.990866510808
   Relative error      =    -0.0913348919 %
 ---------------------------------------
  Cycle       Energy         DIIS Error
 ---------------------------------------
    1     -76.3955398316      4.26E-03
    2     -76.4087656040      1.61E-03
    3     -76.4087847229      1.43E-03
    4     -76.4088488583      1.76E-04
    5     -76.4088498133      8.19E-06
    6     -76.4088498083      5.45E-07
    7     -76.4088498067      3.63E-08
    8     -76.4088498065      2.04E-09 Convergence criterion met
 ---------------------------------------
 SCF time:  CPU 0.43 s  wall 1.00 s
 Analysis of SCF Wavefunction
 
 --------------------------------------------------------------
             Orbital Energies (a.u.) and Symmetries
 --------------------------------------------------------------
 
 Alpha MOs, Restricted
 -- Occupied --                  
-19.137  -0.999  -0.519  -0.372  -0.291
  1 A1    2 A1    1 B1    3 A1    1 B2                                         
 -- Virtual --                   
  0.064   0.149   0.776   0.863   0.891   0.895   1.067   1.192
  4 A1    2 B1    3 B1    5 A1    2 B2    6 A1    4 B1    7 A1                 
  1.730   1.746   1.780   2.285   2.584   3.555
  8 A1    1 A2    3 B2    9 A1    5 B1   10 A1                                 
 
 Beta MOs, Restricted
 -- Occupied --                  
-19.137  -0.999  -0.519  -0.372  -0.291
  1 A1    2 A1    1 B1    3 A1    1 B2                                         
 -- Virtual --                   
  0.064   0.149   0.776   0.863   0.891   0.895   1.067   1.192
  4 A1    2 B1    3 B1    5 A1    2 B2    6 A1    4 B1    7 A1                 
  1.730   1.746   1.780   2.285   2.584   3.555
  8 A1    1 A2    3 B2    9 A1    5 B1   10 A1                                 
 --------------------------------------------------------------
 
         Mulliken Net Atomic Charges

     Atom                 Charge (a.u.)
  ----------------------------------------
      1 O                    -0.776243
      2 H                     0.388122
      3 H                     0.388122
  ----------------------------------------
  Sum of atomic charges =     0.000000

 -----------------------------------------------------------------
                    Cartesian Multipole Moments
 -----------------------------------------------------------------
    Charge (ESU x 10^10)
                 0.0000
    Dipole Moment (Debye)
         X       0.0000      Y       0.0000      Z      -2.0881
       Tot       2.0881
    Quadrupole Moments (Debye-Ang)
        XX      -4.2707     XY       0.0000     YY      -7.1977
        XZ       0.0000     YZ       0.0000     ZZ      -6.0870
    Octapole Moments (Debye-Ang^2)
       XXX       0.0000    XXY       0.0000    XYY       0.0000
       YYY       0.0000    XXZ      -1.2974    XYZ       0.0000
       YYZ      -0.4769    XZZ       0.0000    YZZ       0.0000
       ZZZ      -1.5962
    Hexadecapole Moments (Debye-Ang^3)
      XXXX      -6.0130   XXXY       0.0000   XXYY      -2.1083
      XYYY       0.0000   YYYY      -5.2077   XXXZ       0.0000
      XXYZ       0.0000   XYYZ       0.0000   YYYZ       0.0000
      XXZZ      -1.7891   XYZZ       0.0000   YYZZ      -1.9766
      XZZZ       0.0000   YZZZ       0.0000   ZZZZ      -6.3791
 -----------------------------------------------------------------
 Calculating analytic gradient of the SCF energy
 Gradient of SCF Energy
            1           2           3
    1   0.0000000   0.0023933  -0.0023933
    2   0.0000000  -0.0000000   0.0000000
    3  -0.0046544   0.0023272   0.0023272
 Max gradient component =       4.654E-03
 RMS gradient           =       2.210E-03
 Gradient time:  CPU 0.19 s  wall 0.00 s

 Cartesian Hessian Update
 Hessian Updated using BFGS Update


** GEOMETRY OPTIMIZATION IN DELOCALIZED INTERNAL COORDINATES **
   Searching for a Minimum

   Optimization Cycle:   2

                       Coordinates (Angstroms)
     ATOM              X           Y           Z
    1  O           0.000000    0.000000    0.139738
    2  H          -0.760938    0.000000   -0.453807
    3  H           0.760938    0.000000   -0.453807
   Point Group: c2v   Number of degrees of freedom:   2


   Energy is    -76.408849806


                       Cartesian Gradient (au)
     ATOM              X           Y           Z
    1  O           0.000000    0.000000   -0.004654
    2  H           0.002393    0.000000    0.002327
    3  H          -0.002393    0.000000    0.002327
 Hessian Updated using BFGS Update

  2 Hessian modes will be used to form the next step
  Hessian Eigenvalues:
     0.162921    0.511812

 Minimum Search - Taking Simple RFO Step
 Searching for Lamda that Minimizes Along All modes
 Value Taken    Lamda =  -0.00004757
 Step Taken.  Stepsize is  0.010748


     Parameter Values and Displacements in Internal Coordinates
  Coordinate  Current Value    Gradient  Displacement   New Value
       1           3.060633    -0.002566     0.002200     3.062833
       2          -0.764604     0.003985    -0.010521    -0.775125

                             Maximum     Tolerance    Cnvgd?
         Gradient           0.003985      0.000300      NO
         Displacement       0.010521      0.001200      NO
         Energy change     -0.001314      0.000001      NO


 New Cartesian Coordinates Obtained by Inverse Iteration
     Cycle:   1  Maximum deviation:   0.01052089
     Cycle:   2  Maximum deviation:   0.00002003
     Cycle:   3  Maximum deviation:   0.00000000

 Displacement from previous Coordinates is:  0.007186
 ----------------------------------------------------
       Standard Nuclear Orientation (Angstroms)
    I     Atom         X            Y            Z
 ----------------------------------------------------
    1      O       0.000000     0.000000     0.142506
    2      H      -0.762157     0.000000    -0.455191
    3      H       0.762157     0.000000    -0.455191
 ----------------------------------------------------
 Molecular Point Group                 C2v   NOp =  4
 Largest Abelian Subgroup              C2v   NOp =  4
 Nuclear Repulsion Energy =     9.0887559132 hartrees
 There are        5 alpha and        5 beta electrons
 Applying Cartesian multipole field
    Component          Value
    ---------          -----
     (2,0,0)        1.00000E-10
     (0,2,0)        2.00000E-10
     (0,0,2)       -3.00000E-10
 Nucleus-field energy     =    -0.0000000002 hartrees
 Requested basis set is 6-31G(d)
 There are 8 shells and 19 basis functions
 A cutoff of  1.0D-11 yielded     36 shell pairs
 There are    217 function pairs
 Smallest overlap matrix eigenvalue = 2.27E-02
 Multipole matrices computed through 2nd order
 Guess MOs from SCF MO coefficient file
 A restricted hybrid HF-DFT SCF calculation will be
 performed using Pulay DIIS extrapolation
 Exchange:     0.2000 Hartree-Fock + 0.0800 Slater + 0.7200 Becke
 Correlation:  0.8100 LYP + 0.1900 VWN1RPA
 Using SG-0 standard quadrature grid for H, C, N and O
 Using SG-1 standard quadrature grid for other elements
 SCF converges when DIIS error is below 1.0E-08
 Warning!  Inaccurate integrated density:
   Number of electrons =    10
   Numerical integral  =     9.997133862719
   Relative error      =    -0.0286613728 %
 ---------------------------------------
  Cycle       Energy         DIIS Error
 ---------------------------------------
    1     -76.4060428028      8.08E-04
    2     -76.4088725906      2.20E-04
    3     -76.4088727837      2.08E-04
    4     -76.4088741313      3.76E-05
    5     -76.4088741754      2.06E-06
    6     -76.4088741756      5.92E-08
    7     -76.4088741756      7.99E-09 Convergence criterion met
 ---------------------------------------
 SCF time:  CPU 0.38 s  wall 0.00 s
 Analysis of SCF Wavefunction
 
 --------------------------------------------------------------
             Orbital Energies (a.u.) and Symmetries
 --------------------------------------------------------------
 
 Alpha MOs, Restricted
 -- Occupied --                  
-19.138  -0.998  -0.518  -0.372  -0.291
  1 A1    2 A1    1 B1    3 A1    1 B2                                         
 -- Virtual --                   
  0.063   0.148   0.773   0.861   0.891   0.895   1.066   1.193
  4 A1    2 B1    3 B1    5 A1    2 B2    6 A1    4 B1    7 A1                 
  1.729   1.747   1.780   2.281   2.578   3.552
  8 A1    1 A2    3 B2    9 A1    5 B1   10 A1                                 
 
 Beta MOs, Restricted
 -- Occupied --                  
-19.138  -0.998  -0.518  -0.372  -0.291
  1 A1    2 A1    1 B1    3 A1    1 B2                                         
 -- Virtual --                   
  0.063   0.148   0.773   0.861   0.891   0.895   1.066   1.193
  4 A1    2 B1    3 B1    5 A1    2 B2    6 A1    4 B1    7 A1                 
  1.729   1.747   1.780   2.281   2.578   3.552
  8 A1    1 A2    3 B2    9 A1    5 B1   10 A1                                 
 --------------------------------------------------------------
 
         Mulliken Net Atomic Charges

     Atom                 Charge (a.u.)
  ----------------------------------------
      1 O                    -0.774906
      2 H                     0.387453
      3 H                     0.387453
  ----------------------------------------
  Sum of atomic charges =     0.000000

 -----------------------------------------------------------------
                    Cartesian Multipole Moments
 -----------------------------------------------------------------
    Charge (ESU x 10^10)
                 0.0000
    Dipole Moment (Debye)
         X       0.0000      Y       0.0000      Z      -2.0937
       Tot       2.0937
    Quadrupole Moments (Debye-Ang)
        XX      -4.2794     XY       0.0000     YY      -7.2047
        XZ       0.0000     YZ       0.0000     ZZ      -6.0892
    Octapole Moments (Debye-Ang^2)
       XXX       0.0000    XXY       0.0000    XYY       0.0000
       YYY       0.0000    XXZ      -1.3120    XYZ       0.0000
       YYZ      -0.4891    XZZ       0.0000    YZZ       0.0000
       ZZZ      -1.6316
    Hexadecapole Moments (Debye-Ang^3)
      XXXX      -6.0534   XXXY       0.0000   XXYY      -2.1174
      XYYY       0.0000   YYYY      -5.2158   XXXZ       0.0000
      XXYZ       0.0000   XYYZ       0.0000   YYYZ       0.0000
      XXZZ      -1.7991   XYZZ       0.0000   YYZZ      -1.9860
      XZZZ       0.0000   YZZZ       0.0000   ZZZZ      -6.4213
 -----------------------------------------------------------------
 Calculating analytic gradient of the SCF energy
 Gradient of SCF Energy
            1           2           3
    1  -0.0000000   0.0000289  -0.0000289
    2   0.0000000  -0.0000000  -0.0000000
    3  -0.0001572   0.0000786   0.0000786
 Max gradient component =       1.572E-04
 RMS gradient           =       6.563E-05
 Gradient time:  CPU 0.22 s  wall 0.00 s

 Cartesian Hessian Update
 Hessian Updated using BFGS Update


** GEOMETRY OPTIMIZATION IN DELOCALIZED INTERNAL COORDINATES **
   Searching for a Minimum

   Optimization Cycle:   3

                       Coordinates (Angstroms)
     ATOM              X           Y           Z
    1  O           0.000000    0.000000    0.142506
    2  H          -0.762157    0.000000   -0.455191
    3  H           0.762157    0.000000   -0.455191
   Point Group: c2v   Number of degrees of freedom:   2


   Energy is    -76.408874176


                       Cartesian Gradient (au)
     ATOM              X           Y           Z
    1  O           0.000000    0.000000   -0.000157
    2  H           0.000029    0.000000    0.000079
    3  H          -0.000029    0.000000    0.000079
 Hessian Updated using BFGS Update

  2 Hessian modes will be used to form the next step
  Hessian Eigenvalues:
     0.159957    0.506367

 Minimum Search - Taking Simple RFO Step
 Searching for Lamda that Minimizes Along All modes
 Value Taken    Lamda =  -0.00000007
 Step Taken.  Stepsize is  0.000584


     Parameter Values and Displacements in Internal Coordinates
  Coordinate  Current Value    Gradient  Displacement   New Value
       1           3.062833    -0.000005    -0.000256     3.062577
       2          -0.775125     0.000129    -0.000525    -0.775650

                             Maximum     Tolerance    Cnvgd?
         Gradient           0.000129      0.000300     YES
         Displacement       0.000525      0.001200     YES
         Energy change     -0.000024      0.000001      NO


                       Distance Matrix (Angstroms)
             O (  1)   H (  2)
   H (  2)  0.968568
   H (  3)  0.968568  1.524314
 


 ******************************
 **  OPTIMIZATION CONVERGED  **
 ******************************
 Analysis of SCF Wavefunction
 
 --------------------------------------------------------------
             Orbital Energies (a.u.) and Symmetries
 --------------------------------------------------------------
 
 Alpha MOs, Restricted
 -- Occupied --                  
-19.138  -0.998  -0.518  -0.372  -0.291
  1 A1    2 A1    1 B1    3 A1    1 B2                                         
 -- Virtual --                   
  0.063   0.148   0.773   0.861   0.891   0.895   1.066   1.193
  4 A1    2 B1    3 B1    5 A1    2 B2    6 A1    4 B1    7 A1                 
  1.729   1.747   1.780   2.281   2.578   3.552
  8 A1    1 A2    3 B2    9 A1    5 B1   10 A1                                 
 
 Beta MOs, Restricted
 -- Occupied --                  
-19.138  -0.998  -0.518  -0.372  -0.291
  1 A1    2 A1    1 B1    3 A1    1 B2                                         
 -- Virtual --                   
  0.063   0.148   0.773   0.861   0.891   0.895   1.066   1.193
  4 A1    2 B1    3 B1    5 A1    2 B2    6 A1    4 B1    7 A1                 
  1.729   1.747   1.780   2.281   2.578   3.552
  8 A1    1 A2    3 B2    9 A1    5 B1   10 A1                                 
 --------------------------------------------------------------
 
         Mulliken Net Atomic Charges

     Atom                 Charge (a.u.)
  ----------------------------------------
      1 O                    -0.774906
      2 H                     0.387453
      3 H                     0.387453
  ----------------------------------------
  Sum of atomic charges =     0.000000

 -----------------------------------------------------------------
                    Cartesian Multipole Moments
 -----------------------------------------------------------------
    Charge (ESU x 10^10)
                 0.0000
    Dipole Moment (Debye)
         X       0.0000      Y       0.0000      Z      -2.0937
       Tot       2.0937
    Quadrupole Moments (Debye-Ang)
        XX      -4.2794     XY       0.0000     YY      -7.2047
        XZ       0.0000     YZ       0.0000     ZZ      -6.0892
    Octapole Moments (Debye-Ang^2)
       XXX       0.0000    XXY       0.0000    XYY       0.0000
       YYY       0.0000    XXZ      -1.3120    XYZ       0.0000
       YYZ      -0.4891    XZZ       0.0000    YZZ       0.0000
       ZZZ      -1.6316
    Hexadecapole Moments (Debye-Ang^3)
      XXXX      -6.0534   XXXY       0.0000   XXYY      -2.1174
      XYYY       0.0000   YYYY      -5.2158   XXXZ       0.0000
      XXYZ       0.0000   XYYZ       0.0000   YYYZ       0.0000
      XXZZ      -1.7991   XYZZ       0.0000   YYZZ      -1.9860
      XZZZ       0.0000   YZZZ       0.0000   ZZZZ      -6.4213
 -----------------------------------------------------------------
 Total job time:  3.00s(wall), 1.97s(cpu) 

        *************************************************************
        *                                                           *
        *  Thank you very much for using Q-Chem.  Have a nice day.  *
        *                                                           *
        *************************************************************


                  Welcome to Q-Chem
     A Quantum Leap Into The Future Of Chemistry

 J. Kong, C. A. White, A. I. Krylov, C. D. Sherrill,
 R. D. Adamson, T. R. Furlani, M. S. Lee, A. M. Lee,
 S. R. Gwaltney, T. R. Adams, C. Ochsenfeld, A. T. B. Gilbert,
 G. S. Kedziora,  V. A. Rassolov, D. R. Maurice, N. Nair,
 Y. Shao, N. A. Besley, P. E. Maslen, J. P. Dombroski,
 H. Dachsel, W. M. Zhang, P. P. Korambath, J. Baker,
 E. F. C. Byrd, T. Van Voorhis, M. Oumi, S. Hirata,
 C. P. Hsu, N. Ishikawa, J. Florian, A. Warshel,
 B. G. Johnson, P. M. W. Gill, M. Head-Gordon, J. A. Pople,
 Q-Chem, Version 2.0, Q-Chem, Inc., Export, PA (2000).


 Intel x86 Linux Version

--------------------------------------------------------------
User input:
--------------------------------------------------------------
$molecule  
READ
$end

$rem
EXCHANGE		B3LYP
CORRELATION		None
BASIS			6-311G**
JOBTYPE			SP	
SCF_PRINT		0
PRINT_ORBITALS		TRUE		
SCF_FINAL_PRINT		2	
PRINT_GENERAL_BASIS	TRUE
MEM_TOTAL		3000
MEM_STATIC		128	
GUI			2
$end

--------------------------------------------------------------
 ----------------------------------------------------
       Standard Nuclear Orientation (Angstroms)
    I     Atom         X            Y            Z
 ----------------------------------------------------
    1      O       0.000000     0.000000     0.119539
    2      H      -0.762157     0.000000    -0.478157
    3      H       0.762157     0.000000    -0.478157
 ----------------------------------------------------
 Molecular Point Group                 C2v   NOp =  4
 Largest Abelian Subgroup              C2v   NOp =  4
 Nuclear Repulsion Energy =     9.0887559132 hartrees
 There are        5 alpha and        5 beta electrons
 Requested basis set is 6-311G(d,p)
Basis set in general basis input format:
-----------------------------------------------------------------------
$basis
O    0
S    6    1.000000
   8.58850000E+03    1.89515000E-03 
   1.29723000E+03    1.43859000E-02 
   2.99296000E+02    7.07320000E-02 
   8.73771000E+01    2.40001000E-01 
   2.56789000E+01    5.94797000E-01 
   3.74004000E+00    2.80802000E-01 
SP   3    1.000000
   4.21175000E+01    1.13889000E-01   3.65114000E-02 
   9.62837000E+00    9.20811000E-01   2.37153000E-01 
   2.85332000E+00   -3.27447000E-03   8.19702000E-01 
SP   1    1.000000
   9.05661000E-01    1.00000000E+00   1.00000000E+00 
SP   1    1.000000
   2.55611000E-01    1.00000000E+00   1.00000000E+00 
D    1    1.000000
   1.29200000E+00    1.00000000E+00 
****
H    0
S    3    1.000000
   3.38650000E+01    2.54938000E-02 
   5.09479000E+00    1.90373000E-01 
   1.15879000E+00    8.52161000E-01 
S    1    1.000000
   3.25840000E-01    1.00000000E+00 
S    1    1.000000
   1.02741000E-01    1.00000000E+00 
P    1    1.000000
   7.50000000E-01    1.00000000E+00 
****
H    0
S    3    1.000000
   3.38650000E+01    2.54938000E-02 
   5.09479000E+00    1.90373000E-01 
   1.15879000E+00    8.52161000E-01 
S    1    1.000000
   3.25840000E-01    1.00000000E+00 
S    1    1.000000
   1.02741000E-01    1.00000000E+00 
P    1    1.000000
   7.50000000E-01    1.00000000E+00 
****
$end
-----------------------------------------------------------------------
 There are 13 shells and 30 basis functions

                       Distance Matrix (Angstroms)
             O (  1)   H (  2)
   H (  2)  0.968568
   H (  3)  0.968568  1.524314
 
 Standard Electronic Orientation quadrupole field applied
 Nucleus-field energy     =    -0.0000000002 hartrees
 A cutoff of  1.0D-08 yielded     91 shell pairs
 There are    499 function pairs (   535 Cartesian)
 Smallest overlap matrix eigenvalue = 1.86E-02
 Multipole matrices computed through 2nd order
 Guess from superposition of atomic densities
 Warning:  Energy on first SCF cycle will be non-variational
 A restricted hybrid HF-DFT SCF calculation will be
 performed using Pulay DIIS extrapolation
 Exchange:     0.2000 Hartree-Fock + 0.0800 Slater + 0.7200 Becke
 Correlation:  0.8100 LYP + 0.1900 VWN1RPA
 Using SG-0 standard quadrature grid for H, C, N and O
 Using SG-1 standard quadrature grid for other elements
 SCF converges when DIIS error is below 1.0E-05
 ---------------------------------------
  Cycle       Energy         DIIS Error
 ---------------------------------------
    1     -76.4110465185      1.06E-01
    2     -76.3770302677      2.98E-02
    3     -76.3337461254      3.87E-02
    4     -76.4478689826      8.46E-04
    5     -76.4479174462      1.64E-04
    6     -76.4479191520      1.65E-05
    7     -76.4479191747      8.05E-07 Convergence criterion met
 ---------------------------------------
 One-Electron    Energy =  -123.0418331397
 Total Coulomb   Energy =    46.8672973355
 Alpha Exchange  Energy =    -0.8953300629
 Beta  Exchange  Energy =    -0.8953300629
 DFT   Exchange  Energy =    -7.1322007654
 DFT Correlation Energy =    -0.4392783921
 Nuclear Attr.   Energy =  -199.3419173503
 Kinetic         Energy =    76.3000842106
 SCF time:  CPU 0.55 s  wall 1.00 s
 Final Alpha MO Eigenvalues
            1           2           3           4           5           6
    1 -19.1038630  -0.9998147  -0.5192763  -0.3760268  -0.2987374   0.0273425
            7           8           9          10
    1   0.1024832   0.3751248   0.4201228   0.7604653
 Final Alpha MO Coefficients
            1           2           3           4           5           6
    1   0.5513425  -0.1157606   0.0000000  -0.0452272  -0.0000000   0.0410558
    2   0.4698273  -0.1852210   0.0000000  -0.0734304  -0.0000000   0.0658980
    3   0.0000000   0.0000000   0.2393508   0.0000000   0.0000000  -0.0000000
    4   0.0000000  -0.0000000   0.0000000  -0.0000000   0.3045526  -0.0000000
    5  -0.0012998  -0.0543575  -0.0000000   0.2624835   0.0000000   0.1059936
    6   0.0123828   0.5382438   0.0000000   0.2164791   0.0000000  -0.1714642
    7  -0.0000000   0.0000000   0.3426122   0.0000000   0.0000000  -0.0000000
    8   0.0000000  -0.0000000  -0.0000000  -0.0000000   0.4215904  -0.0000000
    9  -0.0006188  -0.0828451  -0.0000000   0.3586158   0.0000000   0.1591787
   10  -0.0031469   0.3566050  -0.0000000   0.3637316   0.0000000  -0.8095898
   11   0.0000000  -0.0000000   0.2096107   0.0000000  -0.0000000  -0.0000000
   12   0.0000000   0.0000000  -0.0000000  -0.0000000   0.4734362  -0.0000000
   13  -0.0000918  -0.0292031   0.0000000   0.3352558   0.0000000   0.2452466
   14  -0.0000000   0.0000000  -0.0000000   0.0000000   0.0000000  -0.0000000
   15  -0.0000000  -0.0000000  -0.0000000   0.0000000  -0.0177155   0.0000000
   16   0.0000488   0.0039176  -0.0000000  -0.0171069   0.0000000  -0.0065427
   17  -0.0000000  -0.0000000  -0.0249277   0.0000000  -0.0000000   0.0000000
   18   0.0004205   0.0089909  -0.0000000  -0.0016378   0.0000000  -0.0005803
   19  -0.0000500   0.0989306  -0.1539071  -0.0884846   0.0000000   0.0457392
   20  -0.0008647   0.0836647  -0.2028840  -0.1445317   0.0000000   0.0543060
   21   0.0007154   0.0040393  -0.0834315  -0.0415159  -0.0000000   0.7531161
   22  -0.0008903   0.0228676  -0.0133772  -0.0264929   0.0000000  -0.0154320
   23  -0.0000000  -0.0000000   0.0000000   0.0000000   0.0320438  -0.0000000
   24  -0.0007247   0.0129186  -0.0227889   0.0129530   0.0000000  -0.0038825
   25  -0.0000500   0.0989306   0.1539071  -0.0884846   0.0000000   0.0457392
   26  -0.0008647   0.0836647   0.2028840  -0.1445317   0.0000000   0.0543060
   27   0.0007154   0.0040393   0.0834315  -0.0415159   0.0000000   0.7531161
   28   0.0008903  -0.0228676  -0.0133772   0.0264929   0.0000000   0.0154320
   29   0.0000000  -0.0000000  -0.0000000  -0.0000000   0.0320438   0.0000000
   30  -0.0007247   0.0129186   0.0227889   0.0129530   0.0000000  -0.0038825
            7           8           9          10
    1  -0.0000000  -0.0000000   0.0324749   0.0193331
    2   0.0000000  -0.0000000   0.0547371   0.0337429
    3  -0.1682944  -0.1262411   0.0000000   0.0000000
    4   0.0000000  -0.0000000  -0.0000000   0.0000000
    5   0.0000000   0.0000000   0.1220886  -0.2519026
    6   0.0000000   0.0000000  -0.1513984  -0.0774475
    7  -0.2052841  -0.1936232   0.0000000   0.0000000
    8   0.0000000  -0.0000000   0.0000000   0.0000000
    9   0.0000000   0.0000000   0.2177452  -0.7049577
   10  -0.0000000  -0.0000000  -1.0388396  -0.9407096
   11  -0.5298100  -0.8859380   0.0000000   0.0000000
   12   0.0000000   0.0000000  -0.0000000  -0.0000000
   13   0.0000000   0.0000000   0.8535258   1.5907402
   14  -0.0000000   0.0000000  -0.0000000   0.0000000
   15   0.0000000  -0.0000000  -0.0000000  -0.0000000
   16  -0.0000000  -0.0000000  -0.0099955   0.0020006
   17   0.0015461  -0.0210583   0.0000000   0.0000000
   18   0.0000000  -0.0000000   0.0158518  -0.0099592
   19  -0.0402019  -0.1185190   0.1034251   0.0247132
   20  -0.0457922  -1.3425638   1.6284845   0.6686759
   21  -1.3715405   0.9817946  -0.7010513   0.0725717
   22   0.0157793  -0.0221649   0.0126752   0.1150366
   23  -0.0000000  -0.0000000  -0.0000000  -0.0000000
   24   0.0165225   0.0107024   0.0340195   0.1203444
   25   0.0402019   0.1185190   0.1034251   0.0247132
   26   0.0457922   1.3425638   1.6284845   0.6686759
   27   1.3715405  -0.9817946  -0.7010513   0.0725717
   28   0.0157793  -0.0221649  -0.0126752  -0.1150366
   29   0.0000000   0.0000000   0.0000000   0.0000000
   30  -0.0165225  -0.0107024   0.0340195   0.1203444
 Final Alpha density matrix.
            1           2           3           4           5           6
    1   0.3194246   0.2837981   0.0000000   0.0000000  -0.0062956  -0.0652710
    2   0.2837981   0.2604365   0.0000000   0.0000000  -0.0098168  -0.1097724
    3   0.0000000   0.0000000   0.0572888   0.0000000  -0.0000000   0.0000000
    4   0.0000000   0.0000000   0.0000000   0.0927523  -0.0000000  -0.0000000
    5  -0.0062956  -0.0098168  -0.0000000  -0.0000000   0.0718540   0.0275485
    6  -0.0652710  -0.1097724   0.0000000  -0.0000000   0.0275485   0.3367230
    7  -0.0000000  -0.0000000   0.0820045   0.0000000  -0.0000000   0.0000000
    8  -0.0000000  -0.0000000   0.0000000   0.1283964   0.0000000   0.0000000
    9  -0.0069701  -0.0112794   0.0000000  -0.0000000   0.0986348   0.0330343
   10  -0.0594664  -0.0942382  -0.0000000  -0.0000000   0.0760935   0.2706418
   11   0.0000000   0.0000000   0.0501705  -0.0000000   0.0000000   0.0000000
   12   0.0000000   0.0000000   0.0000000   0.1441862   0.0000000   0.0000000
   13  -0.0118327  -0.0192521   0.0000000   0.0000000   0.0895866   0.0568563
   14  -0.0000000  -0.0000000  -0.0000000   0.0000000   0.0000000   0.0000000
   15  -0.0000000  -0.0000000  -0.0000000  -0.0053953   0.0000000   0.0000000
   16   0.0003471   0.0005535  -0.0000000   0.0000000  -0.0047033  -0.0015940
   17  -0.0000000   0.0000000  -0.0059665  -0.0000000   0.0000000  -0.0000000
   18  -0.0007349  -0.0013475  -0.0000000   0.0000000  -0.0009192   0.0044899
   19  -0.0074779  -0.0118500  -0.0368378   0.0000000  -0.0286033   0.0340931
   20  -0.0036251  -0.0052897  -0.0485604   0.0000000  -0.0424839   0.0137332
   21   0.0018045   0.0026365  -0.0199694  -0.0000000  -0.0111177  -0.0068043
   22  -0.0019398  -0.0027085  -0.0032018   0.0000000  -0.0081958   0.0065621
   23  -0.0000000  -0.0000000   0.0000000   0.0097590   0.0000000  -0.0000000
   24  -0.0024809  -0.0036844  -0.0054545   0.0000000   0.0026987   0.0097484
   25  -0.0074779  -0.0118500   0.0368378   0.0000000  -0.0286033   0.0340931
   26  -0.0036251  -0.0052897   0.0485604   0.0000000  -0.0424839   0.0137332
   27   0.0018045   0.0026365   0.0199694   0.0000000  -0.0111177  -0.0068043
   28   0.0019398   0.0027085  -0.0032018   0.0000000   0.0081958  -0.0065621
   29   0.0000000   0.0000000  -0.0000000   0.0097590  -0.0000000  -0.0000000
   30  -0.0024809  -0.0036844   0.0054545  -0.0000000   0.0026987   0.0097484
            7           8           9          10          11          12
    1  -0.0000000  -0.0000000  -0.0069701  -0.0594664   0.0000000   0.0000000
    2  -0.0000000  -0.0000000  -0.0112794  -0.0942382   0.0000000   0.0000000
    3   0.0820045   0.0000000   0.0000000  -0.0000000   0.0501705   0.0000000
    4   0.0000000   0.1283964  -0.0000000  -0.0000000  -0.0000000   0.1441862
    5  -0.0000000   0.0000000   0.0986348   0.0760935   0.0000000   0.0000000
    6   0.0000000   0.0000000   0.0330343   0.2706418   0.0000000   0.0000000
    7   0.1173831   0.0000000   0.0000000  -0.0000000   0.0718152   0.0000000
    8   0.0000000   0.1777385   0.0000000  -0.0000000  -0.0000000   0.1995962
    9   0.0000000   0.0000000   0.1354690   0.1008989   0.0000000   0.0000000
   10  -0.0000000  -0.0000000   0.1008989   0.2594777  -0.0000000  -0.0000000
   11   0.0718152  -0.0000000   0.0000000  -0.0000000   0.0439366  -0.0000000
   12   0.0000000   0.1995962   0.0000000  -0.0000000  -0.0000000   0.2241418
   13   0.0000000   0.0000000   0.1226474   0.1115294   0.0000000   0.0000000
   14  -0.0000000   0.0000000   0.0000000   0.0000000  -0.0000000   0.0000000
   15  -0.0000000  -0.0074687   0.0000000   0.0000000   0.0000000  -0.0083872
   16  -0.0000000   0.0000000  -0.0064594  -0.0048254  -0.0000000   0.0000000
   17  -0.0085405  -0.0000000   0.0000000   0.0000000  -0.0052251  -0.0000000
   18  -0.0000000   0.0000000  -0.0013324   0.0026092  -0.0000000   0.0000000
   19  -0.0527305   0.0000000  -0.0399278   0.0030947  -0.0322606   0.0000000
   20  -0.0695105   0.0000000  -0.0587620  -0.0227328  -0.0425266   0.0000000
   21  -0.0285847  -0.0000000  -0.0152233  -0.0136625  -0.0174881  -0.0000000
   22  -0.0045832   0.0000000  -0.0113947  -0.0014788  -0.0028040   0.0000000
   23   0.0000000   0.0135093   0.0000000   0.0000000  -0.0000000   0.0151707
   24  -0.0078077   0.0000000   0.0035754   0.0093205  -0.0047768   0.0000000
   25   0.0527305   0.0000000  -0.0399278   0.0030947   0.0322606   0.0000000
   26   0.0695105   0.0000000  -0.0587620  -0.0227328   0.0425266   0.0000000
   27   0.0285847   0.0000000  -0.0152233  -0.0136625   0.0174881   0.0000000
   28  -0.0045832   0.0000000   0.0113947   0.0014788  -0.0028040   0.0000000
   29   0.0000000   0.0135093  -0.0000000  -0.0000000  -0.0000000   0.0151707
   30   0.0078077  -0.0000000   0.0035754   0.0093205   0.0047768  -0.0000000
           13          14          15          16          17          18
    1  -0.0118327  -0.0000000  -0.0000000   0.0003471  -0.0000000  -0.0007349
    2  -0.0192521  -0.0000000  -0.0000000   0.0005535   0.0000000  -0.0013475
    3   0.0000000  -0.0000000  -0.0000000  -0.0000000  -0.0059665  -0.0000000
    4   0.0000000   0.0000000  -0.0053953   0.0000000  -0.0000000   0.0000000
    5   0.0895866   0.0000000   0.0000000  -0.0047033   0.0000000  -0.0009192
    6   0.0568563   0.0000000   0.0000000  -0.0015940  -0.0000000   0.0044899
    7   0.0000000  -0.0000000  -0.0000000  -0.0000000  -0.0085405  -0.0000000
    8   0.0000000   0.0000000  -0.0074687   0.0000000  -0.0000000   0.0000000
    9   0.1226474   0.0000000   0.0000000  -0.0064594   0.0000000  -0.0013324
   10   0.1115294   0.0000000   0.0000000  -0.0048254   0.0000000   0.0026092
   11   0.0000000  -0.0000000   0.0000000  -0.0000000  -0.0052251  -0.0000000
   12   0.0000000   0.0000000  -0.0083872   0.0000000  -0.0000000   0.0000000
   13   0.1132493   0.0000000   0.0000000  -0.0058496  -0.0000000  -0.0008117
   14   0.0000000   0.0000000  -0.0000000  -0.0000000   0.0000000  -0.0000000
   15   0.0000000  -0.0000000   0.0003138  -0.0000000   0.0000000  -0.0000000
   16  -0.0058496  -0.0000000  -0.0000000   0.0003080   0.0000000   0.0000633
   17  -0.0000000   0.0000000   0.0000000   0.0000000   0.0006214   0.0000000
   18  -0.0008117  -0.0000000  -0.0000000   0.0000633   0.0000000   0.0000837
   19  -0.0325540   0.0000000  -0.0000000   0.0019013   0.0038366   0.0010344
   20  -0.0508983  -0.0000000  -0.0000000   0.0028002   0.0050574   0.0009886
   21  -0.0140365   0.0000000   0.0000000   0.0007261   0.0020798   0.0001046
   22  -0.0095496  -0.0000000  -0.0000000   0.0005428   0.0003335   0.0002486
   23   0.0000000   0.0000000  -0.0005677  -0.0000000  -0.0000000   0.0000000
   24   0.0039654   0.0000000  -0.0000000  -0.0001710   0.0005681   0.0000946
   25  -0.0325540  -0.0000000  -0.0000000   0.0019013  -0.0038366   0.0010344
   26  -0.0508983  -0.0000000  -0.0000000   0.0028002  -0.0050574   0.0009886
   27  -0.0140365  -0.0000000  -0.0000000   0.0007261  -0.0020798   0.0001046
   28   0.0095496   0.0000000  -0.0000000  -0.0005428   0.0003335  -0.0002486
   29  -0.0000000   0.0000000  -0.0005677   0.0000000  -0.0000000  -0.0000000
   30   0.0039654   0.0000000   0.0000000  -0.0001710  -0.0005681   0.0000946
           19          20          21          22          23          24
    1  -0.0074779  -0.0036251   0.0018045  -0.0019398  -0.0000000  -0.0024809
    2  -0.0118500  -0.0052897   0.0026365  -0.0027085  -0.0000000  -0.0036844
    3  -0.0368378  -0.0485604  -0.0199694  -0.0032018   0.0000000  -0.0054545
    4   0.0000000   0.0000000  -0.0000000   0.0000000   0.0097590   0.0000000
    5  -0.0286033  -0.0424839  -0.0111177  -0.0081958   0.0000000   0.0026987
    6   0.0340931   0.0137332  -0.0068043   0.0065621  -0.0000000   0.0097484
    7  -0.0527305  -0.0695105  -0.0285847  -0.0045832   0.0000000  -0.0078077
    8   0.0000000   0.0000000  -0.0000000   0.0000000   0.0135093   0.0000000
    9  -0.0399278  -0.0587620  -0.0152233  -0.0113947   0.0000000   0.0035754
   10   0.0030947  -0.0227328  -0.0136625  -0.0014788   0.0000000   0.0093205
   11  -0.0322606  -0.0425266  -0.0174881  -0.0028040  -0.0000000  -0.0047768
   12   0.0000000   0.0000000  -0.0000000   0.0000000   0.0151707   0.0000000
   13  -0.0325540  -0.0508983  -0.0140365  -0.0095496   0.0000000   0.0039654
   14   0.0000000  -0.0000000   0.0000000  -0.0000000   0.0000000   0.0000000
   15  -0.0000000  -0.0000000   0.0000000  -0.0000000  -0.0005677  -0.0000000
   16   0.0019013   0.0028002   0.0007261   0.0005428  -0.0000000  -0.0001710
   17   0.0038366   0.0050574   0.0020798   0.0003335  -0.0000000   0.0005681
   18   0.0010344   0.0009886   0.0001046   0.0002486   0.0000000   0.0000946
   19   0.0413042   0.0522912   0.0169138   0.0066654  -0.0000000   0.0036393
   20   0.0522912   0.0690519   0.0232646   0.0084571  -0.0000000   0.0038328
   21   0.0169138   0.0232646   0.0087012   0.0023077  -0.0000000   0.0014152
   22   0.0066654   0.0084571   0.0023077   0.0014045   0.0000000   0.0002578
   23  -0.0000000  -0.0000000  -0.0000000   0.0000000   0.0010268   0.0000000
   24   0.0036393   0.0038328   0.0014152   0.0002578   0.0000000   0.0008545
   25  -0.0060706  -0.0101594  -0.0087676   0.0025477  -0.0000000  -0.0033754
   26  -0.0101594  -0.0132720  -0.0105892   0.0030290  -0.0000000  -0.0054142
   27  -0.0087676  -0.0105892  -0.0052204   0.0000755   0.0000000  -0.0023874
   28  -0.0025477  -0.0030290  -0.0000755  -0.0010466   0.0000000   0.0003520
   29  -0.0000000   0.0000000   0.0000000   0.0000000   0.0010268  -0.0000000
   30  -0.0033754  -0.0054142  -0.0023874  -0.0003520   0.0000000  -0.0001841
           25          26          27          28          29          30
    1  -0.0074779  -0.0036251   0.0018045   0.0019398   0.0000000  -0.0024809
    2  -0.0118500  -0.0052897   0.0026365   0.0027085   0.0000000  -0.0036844
    3   0.0368378   0.0485604   0.0199694  -0.0032018  -0.0000000   0.0054545
    4   0.0000000   0.0000000   0.0000000   0.0000000   0.0097590  -0.0000000
    5  -0.0286033  -0.0424839  -0.0111177   0.0081958  -0.0000000   0.0026987
    6   0.0340931   0.0137332  -0.0068043  -0.0065621  -0.0000000   0.0097484
    7   0.0527305   0.0695105   0.0285847  -0.0045832   0.0000000   0.0078077
    8   0.0000000   0.0000000   0.0000000   0.0000000   0.0135093  -0.0000000
    9  -0.0399278  -0.0587620  -0.0152233   0.0113947  -0.0000000   0.0035754
   10   0.0030947  -0.0227328  -0.0136625   0.0014788  -0.0000000   0.0093205
   11   0.0322606   0.0425266   0.0174881  -0.0028040  -0.0000000   0.0047768
   12   0.0000000   0.0000000   0.0000000   0.0000000   0.0151707  -0.0000000
   13  -0.0325540  -0.0508983  -0.0140365   0.0095496  -0.0000000   0.0039654
   14  -0.0000000  -0.0000000  -0.0000000   0.0000000   0.0000000   0.0000000
   15  -0.0000000  -0.0000000  -0.0000000  -0.0000000  -0.0005677   0.0000000
   16   0.0019013   0.0028002   0.0007261  -0.0005428   0.0000000  -0.0001710
   17  -0.0038366  -0.0050574  -0.0020798   0.0003335  -0.0000000  -0.0005681
   18   0.0010344   0.0009886   0.0001046  -0.0002486  -0.0000000   0.0000946
   19  -0.0060706  -0.0101594  -0.0087676  -0.0025477  -0.0000000  -0.0033754
   20  -0.0101594  -0.0132720  -0.0105892  -0.0030290   0.0000000  -0.0054142
   21  -0.0087676  -0.0105892  -0.0052204  -0.0000755   0.0000000  -0.0023874
   22   0.0025477   0.0030290   0.0000755  -0.0010466   0.0000000  -0.0003520
   23  -0.0000000  -0.0000000   0.0000000   0.0000000   0.0010268   0.0000000
   24  -0.0033754  -0.0054142  -0.0023874   0.0003520  -0.0000000  -0.0001841
   25   0.0413042   0.0522912   0.0169138  -0.0066654  -0.0000000   0.0036393
   26   0.0522912   0.0690519   0.0232646  -0.0084571   0.0000000   0.0038328
   27   0.0169138   0.0232646   0.0087012  -0.0023077   0.0000000   0.0014152
   28  -0.0066654  -0.0084571  -0.0023077   0.0014045   0.0000000  -0.0002578
   29  -0.0000000   0.0000000   0.0000000   0.0000000   0.0010268  -0.0000000
   30   0.0036393   0.0038328   0.0014152  -0.0002578  -0.0000000   0.0008545
 Analysis of SCF Wavefunction
 
 --------------------------------------------------------------
             Orbital Energies (a.u.) and Symmetries
 --------------------------------------------------------------
 
 Alpha MOs, Restricted
 -- Occupied --                  
-19.104  -1.000  -0.519  -0.376  -0.299
  1 A1    2 A1    1 B1    3 A1    1 B2                                         
 -- Virtual --                   
  0.027   0.102   0.375   0.420   0.760   0.764   0.861   1.067
  4 A1    2 B1    3 B1    5 A1    6 A1    2 B2    4 B1    7 A1                 
  1.242   1.267   1.458   1.653   1.913   2.044   2.287   2.480
  8 A1    1 A2    3 B2    5 B1    6 B1    9 A1   10 A1    7 B1                 
  3.108   3.148   3.312   3.583   3.814   4.764   5.179   5.585
  4 B2    2 A2   11 A1   12 A1    8 B1    5 B2   13 A1    9 B1                 
 49.832
 14 A1                                                                         
 
 Beta MOs, Restricted
 -- Occupied --                  
-19.104  -1.000  -0.519  -0.376  -0.299
  1 A1    2 A1    1 B1    3 A1    1 B2                                         
 -- Virtual --                   
  0.027   0.102   0.375   0.420   0.760   0.764   0.861   1.067
  4 A1    2 B1    3 B1    5 A1    6 A1    2 B2    4 B1    7 A1                 
  1.242   1.267   1.458   1.653   1.913   2.044   2.287   2.480
  8 A1    1 A2    3 B2    5 B1    6 B1    9 A1   10 A1    7 B1                 
  3.108   3.148   3.312   3.583   3.814   4.764   5.179   5.585
  4 B2    2 A2   11 A1   12 A1    8 B1    5 B2   13 A1    9 B1                 
 49.832
 14 A1                                                                         
 --------------------------------------------------------------
 

                        RESTRICTED (RHF) MOLECULAR ORBITAL COEFFICIENTS
                         1         2         3         4         5         6
eigenvalues:        -19.104    -1.000    -0.519    -0.376    -0.299     0.027
   1  O     s       0.55134  -0.11576   0.00000  -0.04523   0.00000   0.04106
   2  O     s       0.46983  -0.18522   0.00000  -0.07343   0.00000   0.06590
   3  O     px      0.00000   0.00000   0.23935   0.00000   0.00000   0.00000
   4  O     py      0.00000   0.00000   0.00000   0.00000   0.30455   0.00000
   5  O     pz     -0.00130  -0.05436   0.00000   0.26248   0.00000   0.10599
   6  O     s       0.01238   0.53824   0.00000   0.21648   0.00000  -0.17146
   7  O     px      0.00000   0.00000   0.34261   0.00000   0.00000   0.00000
   8  O     py      0.00000   0.00000   0.00000   0.00000   0.42159   0.00000
   9  O     pz     -0.00062  -0.08285   0.00000   0.35862   0.00000   0.15918
  10  O     s      -0.00315   0.35661   0.00000   0.36373   0.00000  -0.80959
  11  O     px      0.00000   0.00000   0.20961   0.00000   0.00000   0.00000
  12  O     py      0.00000   0.00000   0.00000   0.00000   0.47344   0.00000
  13  O     pz     -0.00009  -0.02920   0.00000   0.33526   0.00000   0.24525
  14  O     d 1     0.00000   0.00000   0.00000   0.00000   0.00000   0.00000
  15  O     d 2     0.00000   0.00000   0.00000   0.00000  -0.01772   0.00000
  16  O     d 3     0.00005   0.00392   0.00000  -0.01711   0.00000  -0.00654
  17  O     d 4     0.00000   0.00000  -0.02493   0.00000   0.00000   0.00000
  18  O     d 5     0.00042   0.00899   0.00000  -0.00164   0.00000  -0.00058
  19  H 1   s      -0.00005   0.09893  -0.15391  -0.08848   0.00000   0.04574
  20  H 1   s      -0.00086   0.08366  -0.20288  -0.14453   0.00000   0.05431
  21  H 1   s       0.00072   0.00404  -0.08343  -0.04152   0.00000   0.75312
  22  H 1   px     -0.00089   0.02287  -0.01338  -0.02649   0.00000  -0.01543
  23  H 1   py      0.00000   0.00000   0.00000   0.00000   0.03204   0.00000
  24  H 1   pz     -0.00072   0.01292  -0.02279   0.01295   0.00000  -0.00388
  25  H 2   s      -0.00005   0.09893   0.15391  -0.08848   0.00000   0.04574
  26  H 2   s      -0.00086   0.08366   0.20288  -0.14453   0.00000   0.05431
  27  H 2   s       0.00072   0.00404   0.08343  -0.04152   0.00000   0.75312
  28  H 2   px      0.00089  -0.02287  -0.01338   0.02649   0.00000   0.01543
  29  H 2   py      0.00000   0.00000   0.00000   0.00000   0.03204   0.00000
  30  H 2   pz     -0.00072   0.01292   0.02279   0.01295   0.00000  -0.00388
                         7         8         9        10
eigenvalues:          0.102     0.375     0.420     0.760
   1  O     s       0.00000   0.00000   0.03247   0.01933
   2  O     s       0.00000   0.00000   0.05474   0.03374
   3  O     px     -0.16829  -0.12624   0.00000   0.00000
   4  O     py      0.00000   0.00000   0.00000   0.00000
   5  O     pz      0.00000   0.00000   0.12209  -0.25190
   6  O     s       0.00000   0.00000  -0.15140  -0.07745
   7  O     px     -0.20528  -0.19362   0.00000   0.00000
   8  O     py      0.00000   0.00000   0.00000   0.00000
   9  O     pz      0.00000   0.00000   0.21775  -0.70496
  10  O     s       0.00000   0.00000  -1.03884  -0.94071
  11  O     px     -0.52981  -0.88594   0.00000   0.00000
  12  O     py      0.00000   0.00000   0.00000   0.00000
  13  O     pz      0.00000   0.00000   0.85353   1.59074
  14  O     d 1     0.00000   0.00000   0.00000   0.00000
  15  O     d 2     0.00000   0.00000   0.00000   0.00000
  16  O     d 3     0.00000   0.00000  -0.01000   0.00200
  17  O     d 4     0.00155  -0.02106   0.00000   0.00000
  18  O     d 5     0.00000   0.00000   0.01585  -0.00996
  19  H 1   s      -0.04020  -0.11852   0.10343   0.02471
  20  H 1   s      -0.04579  -1.34256   1.62848   0.66868
  21  H 1   s      -1.37154   0.98179  -0.70105   0.07257
  22  H 1   px      0.01578  -0.02216   0.01268   0.11504
  23  H 1   py      0.00000   0.00000   0.00000   0.00000
  24  H 1   pz      0.01652   0.01070   0.03402   0.12034
  25  H 2   s       0.04020   0.11852   0.10343   0.02471
  26  H 2   s       0.04579   1.34256   1.62848   0.66868
  27  H 2   s       1.37154  -0.98179  -0.70105   0.07257
  28  H 2   px      0.01578  -0.02216  -0.01268  -0.11504
  29  H 2   py      0.00000   0.00000   0.00000   0.00000
  30  H 2   pz     -0.01652  -0.01070   0.03402   0.12034
 
         Mulliken Net Atomic Charges

     Atom                 Charge (a.u.)
  ----------------------------------------
      1 O                    -0.475057
      2 H                     0.237528
      3 H                     0.237528
  ----------------------------------------
  Sum of atomic charges =     0.000000

 -----------------------------------------------------------------
                    Cartesian Multipole Moments
 -----------------------------------------------------------------
    Charge (ESU x 10^10)
                 0.0000
    Dipole Moment (Debye)
         X       0.0000      Y       0.0000      Z      -2.0740
       Tot       2.0740
    Quadrupole Moments (Debye-Ang)
        XX      -4.3178     XY       0.0000     YY      -7.2158
        XZ       0.0000     YZ       0.0000     ZZ      -6.0618
    Octapole Moments (Debye-Ang^2)
       XXX       0.0000    XXY       0.0000    XYY       0.0000
       YYY       0.0000    XXZ      -1.2299    XYZ       0.0000
       YYZ      -0.3081    XZZ       0.0000    YZZ       0.0000
       ZZZ      -1.1776
    Hexadecapole Moments (Debye-Ang^3)
      XXXX      -6.2491   XXXY       0.0000   XXYY      -2.2087
      XYYY       0.0000   YYYY      -5.3310   XXXZ       0.0000
      XXYZ       0.0000   XYYZ       0.0000   YYYZ       0.0000
      XXZZ      -1.7753   XYZZ       0.0000   YYZZ      -2.0207
      XZZZ       0.0000   YZZZ       0.0000   ZZZZ      -6.4529
 -----------------------------------------------------------------
 Total job time:  2.00s(wall), 0.60s(cpu) 

        *************************************************************
        *                                                           *
        *  Thank you very much for using Q-Chem.  Have a nice day.  *
        *                                                           *
        *************************************************************


                  Welcome to Q-Chem
     A Quantum Leap Into The Future Of Chemistry

 J. Kong, C. A. White, A. I. Krylov, C. D. Sherrill,
 R. D. Adamson, T. R. Furlani, M. S. Lee, A. M. Lee,
 S. R. Gwaltney, T. R. Adams, C. Ochsenfeld, A. T. B. Gilbert,
 G. S. Kedziora,  V. A. Rassolov, D. R. Maurice, N. Nair,
 Y. Shao, N. A. Besley, P. E. Maslen, J. P. Dombroski,
 H. Dachsel, W. M. Zhang, P. P. Korambath, J. Baker,
 E. F. C. Byrd, T. Van Voorhis, M. Oumi, S. Hirata,
 C. P. Hsu, N. Ishikawa, J. Florian, A. Warshel,
 B. G. Johnson, P. M. W. Gill, M. Head-Gordon, J. A. Pople,
 Q-Chem, Version 2.0, Q-Chem, Inc., Export, PA (2000).


 Intel x86 Linux Version

--------------------------------------------------------------
User input:
--------------------------------------------------------------
$molecule  
READ
$end

$rem
EXCHANGE	B3LYP
CORRELATION	None
BASIS		6-311G**
JOBTYPE		FREQ	
SCF_PRINT	0
PRINT_ORBITALS	FALSE		
SCF_FINAL_PRINT	0
MEM_TOTAL	3000
MEM_STATIC	128	
VIBMAN_PRINT	1
DORAMAN		FALSE
$end

$comment
Test run for H2O for possible compatibility with Molden
$end
--------------------------------------------------------------
 ----------------------------------------------------
       Standard Nuclear Orientation (Angstroms)
    I     Atom         X            Y            Z
 ----------------------------------------------------
    1      O       0.000000     0.000000     0.119539
    2      H      -0.762157     0.000000    -0.478157
    3      H       0.762157     0.000000    -0.478157
 ----------------------------------------------------
 Molecular Point Group                 C2v   NOp =  4
 Largest Abelian Subgroup              C2v   NOp =  4
 Nuclear Repulsion Energy =     9.0887559132 hartrees
 There are        5 alpha and        5 beta electrons
 Requested basis set is 6-311G(d,p)
 There are 13 shells and 30 basis functions

                       Distance Matrix (Angstroms)
             O (  1)   H (  2)
   H (  2)  0.968568
   H (  3)  0.968568  1.524314
 
 A cutoff of  1.0D-11 yielded     91 shell pairs
 There are    499 function pairs (   535 Cartesian)
 Smallest overlap matrix eigenvalue = 1.86E-02
 Multipole matrices computed through 2nd order
 Guess from superposition of atomic densities
 Warning:  Energy on first SCF cycle will be non-variational
 A restricted hybrid HF-DFT SCF calculation will be
 performed using Pulay DIIS extrapolation
 Exchange:     0.2000 Hartree-Fock + 0.0800 Slater + 0.7200 Becke
 Correlation:  0.8100 LYP + 0.1900 VWN1RPA
 Using SG-0 standard quadrature grid for H, C, N and O
 Using SG-1 standard quadrature grid for other elements
 SCF converges when DIIS error is below 1.0E-08
 ---------------------------------------
  Cycle       Energy         DIIS Error
 ---------------------------------------
    1     -76.4110465294      1.06E-01
    2     -76.3770302789      2.98E-02
    3     -76.3337461363      3.87E-02
    4     -76.4478689942      8.46E-04
    5     -76.4479174578      1.64E-04
    6     -76.4479191636      1.65E-05
    7     -76.4479191863      8.05E-07
    8     -76.4479191863      4.10E-08
    9     -76.4479191863      4.20E-09 Convergence criterion met
 ---------------------------------------
 SCF time:  CPU 0.72 s  wall 1.00 s
 Analysis of SCF Wavefunction
 
 --------------------------------------------------------------
             Orbital Energies (a.u.) and Symmetries
 --------------------------------------------------------------
 
 Alpha MOs, Restricted
 -- Occupied --                  
-19.104  -1.000  -0.519  -0.376  -0.299
  1 A1    2 A1    1 B1    3 A1    1 B2                                         
 -- Virtual --                   
  0.027   0.102   0.375   0.420   0.760   0.764   0.861   1.067
  4 A1    2 B1    3 B1    5 A1    6 A1    2 B2    4 B1    7 A1                 
  1.242   1.267   1.458   1.653   1.913   2.044   2.287   2.480
  8 A1    1 A2    3 B2    5 B1    6 B1    9 A1   10 A1    7 B1                 
  3.108   3.148   3.312   3.583   3.814   4.764   5.179   5.585
  4 B2    2 A2   11 A1   12 A1    8 B1    5 B2   13 A1    9 B1                 
 49.832
 14 A1                                                                         
 
 Beta MOs, Restricted
 -- Occupied --                  
-19.104  -1.000  -0.519  -0.376  -0.299
  1 A1    2 A1    1 B1    3 A1    1 B2                                         
 -- Virtual --                   
  0.027   0.102   0.375   0.420   0.760   0.764   0.861   1.067
  4 A1    2 B1    3 B1    5 A1    6 A1    2 B2    4 B1    7 A1                 
  1.242   1.267   1.458   1.653   1.913   2.044   2.287   2.480
  8 A1    1 A2    3 B2    5 B1    6 B1    9 A1   10 A1    7 B1                 
  3.108   3.148   3.312   3.583   3.814   4.764   5.179   5.585
  4 B2    2 A2   11 A1   12 A1    8 B1    5 B2   13 A1    9 B1                 
 49.832
 14 A1                                                                         
 --------------------------------------------------------------
 
         Mulliken Net Atomic Charges

     Atom                 Charge (a.u.)
  ----------------------------------------
      1 O                    -0.475057
      2 H                     0.237528
      3 H                     0.237528
  ----------------------------------------
  Sum of atomic charges =     0.000000

 -----------------------------------------------------------------
                    Cartesian Multipole Moments
 -----------------------------------------------------------------
    Charge (ESU x 10^10)
                 0.0000
    Dipole Moment (Debye)
         X       0.0000      Y       0.0000      Z      -2.0740
       Tot       2.0740
    Quadrupole Moments (Debye-Ang)
        XX      -4.3178     XY       0.0000     YY      -7.2158
        XZ       0.0000     YZ       0.0000     ZZ      -6.0618
    Octapole Moments (Debye-Ang^2)
       XXX       0.0000    XXY       0.0000    XYY       0.0000
       YYY       0.0000    XXZ      -1.2299    XYZ       0.0000
       YYZ      -0.3081    XZZ       0.0000    YZZ       0.0000
       ZZZ      -1.1776
    Hexadecapole Moments (Debye-Ang^3)
      XXXX      -6.2491   XXXY       0.0000   XXYY      -2.2087
      XYYY       0.0000   YYYY      -5.3310   XXXZ       0.0000
      XXYZ       0.0000   XYYZ       0.0000   YYYZ       0.0000
      XXZZ      -1.7753   XYZZ       0.0000   YYZZ      -2.0207
      XZZZ       0.0000   YZZZ       0.0000   ZZZZ      -6.4529
 -----------------------------------------------------------------
 Calculating MO derivatives via CPSCF
   1         3           9      0.127560    0.045552
   2         3           9      0.012502    0.004918
   3         3           9      0.000589    0.000231
   4        12           0      0.000000    0.000000    Roots Converged
 Calculating analytic Hessian of the SCF energy
 Polarizability Matrix (a.u.)
            1           2           3
    1  -7.8749233   0.0000000  -0.0000000
    2   0.0000000  -4.0488469  -0.0000000
    3  -0.0000000  -0.0000000  -6.0164003
 
 Direct stationary perturbation theory relativistic correction:
 
 rels  =       0.029910070766
 relv  =      -0.111909191404
 rel2e =       0.031059813029
 E_rel =      -0.050939307610
 
 Hessian of the SCF Energy
            1           2           3           4           5           6
    1   0.6364053  -0.0000000  -0.0000000  -0.3182027  -0.0000000  -0.2492296
    2  -0.0000000   0.0030944   0.0000000  -0.0000000  -0.0015472  -0.0000000
    3  -0.0000000   0.0000000   0.4534207  -0.1892208  -0.0000000  -0.2267104
    4  -0.3182027  -0.0000000  -0.1892208   0.3486719   0.0000000   0.2192252
    5  -0.0000000  -0.0015472  -0.0000000   0.0000000   0.0018116   0.0000000
    6  -0.2492296  -0.0000000  -0.2267104   0.2192252   0.0000000   0.2149648
    7  -0.3182027   0.0000000   0.1892208  -0.0304692  -0.0000000   0.0300044
    8   0.0000000  -0.0015472  -0.0000000   0.0000000  -0.0002644   0.0000000
    9   0.2492296  -0.0000000  -0.2267104  -0.0300044   0.0000000   0.0117456
            7           8           9
    1  -0.3182027   0.0000000   0.2492296
    2   0.0000000  -0.0015472  -0.0000000
    3   0.1892208  -0.0000000  -0.2267104
    4  -0.0304692   0.0000000  -0.0300044
    5  -0.0000000  -0.0002644   0.0000000
    6   0.0300044   0.0000000   0.0117456
    7   0.3486719  -0.0000000  -0.2192252
    8  -0.0000000   0.0018116   0.0000000
    9  -0.2192252   0.0000000   0.2149648
 Gradient time:  CPU 5.09 s  wall 8.00 s
 **********************************************************************
 **                                                                  **
 **                       VIBRATIONAL ANALYSIS                       **
 **                       --------------------                       **
 **                                                                  **
 **        VIBRATIONAL FREQUENCIES (CM**-1) AND NORMAL MODES         **
 **                  INFRARED INTENSITIES (KM/MOL)                   **
 **                                                                  **
 **********************************************************************
 

 Frequency:      1675.64                3718.39                3819.28
 IR Active:          YES                    YES                    YES
 IR Intens:       57.626                  3.479                 23.514
 Raman Active:       YES                    YES                    YES
               X      Y      Z        X      Y      Z        X      Y      Z
 O          0.000  0.000 -0.070    0.000  0.000 -0.051   -0.070  0.000  0.000
 H         -0.435  0.000  0.555    0.580  0.000  0.403    0.555  0.000  0.435
 H          0.435  0.000  0.555   -0.580  0.000  0.403    0.555  0.000 -0.435

 STANDARD THERMODYNAMIC QUANTITIES AT   298.18 K  AND     1.00 ATM

   This Molecule has  0 Imaginary Frequencies
   Zero point vibrational energy:       13.171 kcal/mol

   Atom    1 Element O  Has Mass   15.99491
   Atom    2 Element H  Has Mass    1.00783
   Atom    3 Element H  Has Mass    1.00783
   Molecular Mass:    18.010570 amu
   Principal axes and moments of inertia in atomic units:
                           1         2         3
    Eigenvalues --      2.28366   4.18123   6.46489
          X             1.00000   0.00000   0.00000
          Y             0.00000   0.00000   1.00000
          Z             0.00000   1.00000   0.00000
   Rotational Symmetry Number is   2
   The Molecule is an Asymmetric Top
   Translational Enthalpy:        0.889 kcal/mol
   Rotational Enthalpy:           0.889 kcal/mol
   Vibrational Enthalpy:         13.173 kcal/mol
   gas constant (RT):             0.593 kcal/mol
   Translational Entropy:        34.609  cal/mol.K
   Rotational Entropy:           10.522  cal/mol.K
   Vibrational Entropy:           0.006  cal/mol.K

   Total Enthalpy:               15.543 kcal/mol
   Total Entropy:                45.136  cal/mol.K
 Total job time:  9.00s(wall), 5.87s(cpu) 

        *************************************************************
        *                                                           *
        *  Thank you very much for using Q-Chem.  Have a nice day.  *
        *                                                           *
        *************************************************************


