 Entering Gaussian System, Link 0=g03
 Initial command:
 /usr/local/gaussian/g03/l1.exe /scratch/deninho/Gau-23304.inp -scrdir=/scratch/deninho/
 Entering Link 1 = /usr/local/gaussian/g03/l1.exe PID=     23305.
  
 Copyright (c) 1988,1990,1992,1993,1995,1998,2003,2004,2007, Gaussian, Inc.
                  All Rights Reserved.
  
 This is the Gaussian(R) 03 program.  It is based on the
 the Gaussian(R) 98 system (copyright 1998, Gaussian, Inc.),
 the Gaussian(R) 94 system (copyright 1995, Gaussian, Inc.),
 the Gaussian 92(TM) system (copyright 1992, Gaussian, Inc.),
 the Gaussian 90(TM) system (copyright 1990, Gaussian, Inc.),
 the Gaussian 88(TM) system (copyright 1988, Gaussian, Inc.),
 the Gaussian 86(TM) system (copyright 1986, Carnegie Mellon
 University), and the Gaussian 82(TM) system (copyright 1983,
 Carnegie Mellon University). Gaussian is a federally registered
 trademark of Gaussian, Inc.
  
 This software contains proprietary and confidential information,
 including trade secrets, belonging to Gaussian, Inc.
  
 This software is provided under written license and may be
 used, copied, transmitted, or stored only in accord with that
 written license.
  
 The following legend is applicable only to US Government
 contracts under FAR:
  
                    RESTRICTED RIGHTS LEGEND
  
 Use, reproduction and disclosure by the US Government is
 subject to restrictions as set forth in subparagraphs (a)
 and (c) of the Commercial Computer Software - Restricted
 Rights clause in FAR 52.227-19.
  
 Gaussian, Inc.
 340 Quinnipiac St., Bldg. 40, Wallingford CT 06492
  
  
 ---------------------------------------------------------------
 Warning -- This program may not be used in any manner that
 competes with the business of Gaussian, Inc. or will provide
 assistance to any competitor of Gaussian, Inc.  The licensee
 of this program is prohibited from giving any competitor of
 Gaussian, Inc. access to this program.  By using this program,
 the user acknowledges that Gaussian, Inc. is engaged in the
 business of creating and licensing software in the field of
 computational chemistry and represents and warrants to the
 licensee that it is not a competitor of Gaussian, Inc. and that
 it will not use this program in any manner prohibited above.
 ---------------------------------------------------------------
  

 Cite this work as:
 Gaussian 03, Revision E.01,
 M. J. Frisch, G. W. Trucks, H. B. Schlegel, G. E. Scuseria, 
 M. A. Robb, J. R. Cheeseman, J. A. Montgomery, Jr., T. Vreven, 
 K. N. Kudin, J. C. Burant, J. M. Millam, S. S. Iyengar, J. Tomasi, 
 V. Barone, B. Mennucci, M. Cossi, G. Scalmani, N. Rega, 
 G. A. Petersson, H. Nakatsuji, M. Hada, M. Ehara, K. Toyota, 
 R. Fukuda, J. Hasegawa, M. Ishida, T. Nakajima, Y. Honda, O. Kitao, 
 H. Nakai, M. Klene, X. Li, J. E. Knox, H. P. Hratchian, J. B. Cross, 
 V. Bakken, C. Adamo, J. Jaramillo, R. Gomperts, R. E. Stratmann, 
 O. Yazyev, A. J. Austin, R. Cammi, C. Pomelli, J. W. Ochterski, 
 P. Y. Ayala, K. Morokuma, G. A. Voth, P. Salvador, J. J. Dannenberg, 
 V. G. Zakrzewski, S. Dapprich, A. D. Daniels, M. C. Strain, 
 O. Farkas, D. K. Malick, A. D. Rabuck, K. Raghavachari, 
 J. B. Foresman, J. V. Ortiz, Q. Cui, A. G. Baboul, S. Clifford, 
 J. Cioslowski, B. B. Stefanov, G. Liu, A. Liashenko, P. Piskorz, 
 I. Komaromi, R. L. Martin, D. J. Fox, T. Keith, M. A. Al-Laham, 
 C. Y. Peng, A. Nanayakkara, M. Challacombe, P. M. W. Gill, 
 B. Johnson, W. Chen, M. W. Wong, C. Gonzalez, and J. A. Pople, 
 Gaussian, Inc., Wallingford CT, 2004.
 
 ******************************************
 Gaussian 03:  AM64L-G03RevE.01 11-Sep-2007
                 7-Dec-2009 
 ******************************************
 ---------------------------------------------------------------
 #P HF/CC-PVDZ NMR(SPINSPIN) POP=FULL GFPRINT GFINPUT IOP(6/7=3)
 ---------------------------------------------------------------
 1/38=1/1;
 2/17=6,18=5,40=1/2;
 3/5=16,11=9,16=1,24=110,25=1,30=1/1,2,8,3;
 4//1;
 5/5=2,38=5/2;
 8/6=1,10=90,11=11/1;
 10/13=100,45=16,47=1/2;
 6/7=3,28=1/1;
 99/9=1/99;
 Leave Link    1 at Mon Dec  7 21:54:06 2009, MaxMem=          0 cpu:       0.1
 (Enter /usr/local/gaussian/g03/l101.exe)
 ------
 ETANOL
 ------
 Symbolic Z-matrix:
 Charge =  0 Multiplicity = 1
 c
 c                    1    cc2
 o                    2    oc3      1    occ3
 h                    1    hc4      2    hcc4     3    dih4     0
 h                    1    hc5      2    hcc5     3    dih5     0
 h                    1    hc6      2    hcc6     3    dih6     0
 h                    2    hc7      1    hcc7     4    dih7     0
 h                    2    hc8      1    hcc8     4    dih8     0
 h                    3    ho9      2    hoc9     1    dih9     0
       Variables:
  cc2                   1.51818                  
  oc3                   1.42312                  
  occ3                107.775                    
  hc4                   1.10207                  
  hcc4                110.876                    
  dih4                180.                       
  hc5                   1.10182                  
  hcc5                110.419                    
  dih5                -59.68                     
  hc6                   1.10182                  
  hcc6                110.419                    
  dih6                 59.68                     
  hc7                   1.11018                  
  hcc7                109.799                    
  dih7                -58.677                    
  hc8                   1.11018                  
  hcc8                109.799                    
  dih8                 58.677                    
  ho9                   0.96755                  
  hoc9                107.806                    
  dih9                180.                       
 
                    Isotopes and Nuclear Properties:
 (Nuclear quadrupole moments (NQMom) in fm**2, nuclear magnetic moments (NMagM)
  in nuclear magnetons)

  Atom         1           2           3           4           5           6           7           8           9
 IAtWgt=          12          12          16           1           1           1           1           1           1
 AtmWgt=  12.0000000  12.0000000  15.9949146   1.0078250   1.0078250   1.0078250   1.0078250   1.0078250   1.0078250
 NucSpn=           0           0           0           1           1           1           1           1           1
 AtZEff=   0.0000000   0.0000000   0.0000000   0.0000000   0.0000000   0.0000000   0.0000000   0.0000000   0.0000000
 NQMom=    0.0000000   0.0000000   0.0000000   0.0000000   0.0000000   0.0000000   0.0000000   0.0000000   0.0000000
 NMagM=    0.0000000   0.0000000   0.0000000   2.7928460   2.7928460   2.7928460   2.7928460   2.7928460   2.7928460
 Leave Link  101 at Mon Dec  7 21:54:06 2009, MaxMem=    6291456 cpu:       0.1
 (Enter /usr/local/gaussian/g03/l202.exe)
                          Input orientation:                          
 ---------------------------------------------------------------------
 Center     Atomic     Atomic              Coordinates (Angstroms)
 Number     Number      Type              X           Y           Z
 ---------------------------------------------------------------------
    1          6             0        0.000000    0.000000    0.000000
    2          6             0        0.000000    0.000000    1.518175
    3          8             0        1.355187    0.000000    1.952626
    4          1             0       -1.029727    0.000000   -0.392720
    5          1             0        0.521280    0.891349   -0.384405
    6          1             0        0.521280   -0.891349   -0.384405
    7          1             0       -0.543026    0.892313    1.894218
    8          1             0       -0.543026   -0.892313    1.894218
    9          1             0        1.355710    0.000000    2.920180
 ---------------------------------------------------------------------
                    Distance matrix (angstroms):
                    1          2          3          4          5
     1  C    0.000000
     2  C    1.518175   0.000000
     3  O    2.376821   1.423123   0.000000
     4  H    1.102074   2.170682   3.344916   0.000000
     5  H    1.101818   2.164728   2.636592   1.788909   0.000000
     6  H    1.101818   2.164728   2.636592   1.788909   1.782698
     7  H    2.163137   1.110184   2.098296   2.502636   2.514930
     8  H    2.163137   1.110184   2.098296   2.502636   3.083232
     9  H    3.219534   1.950274   0.967554   4.082355   3.522933
                    6          7          8          9
     6  H    0.000000
     7  H    3.083232   0.000000
     8  H    2.514930   1.784627   0.000000
     9  H    3.522933   2.335384   2.335384   0.000000
 Stoichiometry    C2H6O
 Framework group  CS[SG(C2H2O),X(H4)]
 Deg. of freedom    13
 Full point group                 CS
 Largest Abelian subgroup         CS      NOp   2
 Largest concise Abelian subgroup CS      NOp   2
                         Standard orientation:                         
 ---------------------------------------------------------------------
 Center     Atomic     Atomic              Coordinates (Angstroms)
 Number     Number      Type              X           Y           Z
 ---------------------------------------------------------------------
    1          6             0        1.170143   -0.412176    0.000000
    2          6             0        0.000000    0.555098    0.000000
    3          8             0       -1.198286   -0.212620    0.000000
    4          1             0        2.128905    0.131279    0.000000
    5          1             0        1.134304   -1.058872    0.891349
    6          1             0        1.134304   -1.058872   -0.891349
    7          1             0        0.056140    1.213227    0.892313
    8          1             0        0.056140    1.213227   -0.892313
    9          1             0       -1.944368    0.403434    0.000000
 ---------------------------------------------------------------------
 Rotational constants (GHZ):     34.7900889      9.3633902      8.1397523
 Leave Link  202 at Mon Dec  7 21:54:07 2009, MaxMem=    6291456 cpu:       0.1
 (Enter /usr/local/gaussian/g03/l301.exe)
 Standard basis: CC-pVDZ (5D, 7F)
 AO basis set in the form of general basis input:
      1 0
 S   7 1.00       0.000000000000
      0.6665000000D+04  0.6935163173D-03
      0.1000000000D+04  0.5341502433D-02
      0.2280000000D+03  0.2713667141D-01
      0.6471000000D+02  0.1019923853D+00
      0.2106000000D+02  0.2755086365D+00
      0.7495000000D+01  0.4510864331D+00
      0.2797000000D+01  0.2875657448D+00
 S   7 1.00       0.000000000000
      0.6665000000D+04  0.6283132185D-06
      0.1000000000D+04 -0.5484799995D-04
      0.6471000000D+02 -0.3631370641D-02
      0.2106000000D+02 -0.1179836986D-01
      0.7495000000D+01 -0.1109098848D+00
      0.2797000000D+01 -0.1347422469D+00
      0.5215000000D+00  0.1101758493D+01
 S   1 1.00       0.000000000000
      0.1596000000D+00  0.1000000000D+01
 P   3 1.00       0.000000000000
      0.9439000000D+01  0.5697925159D-01
      0.2002000000D+01  0.3132072115D+00
      0.5456000000D+00  0.7603767417D+00
 P   1 1.00       0.000000000000
      0.1517000000D+00  0.1000000000D+01
 D   1 1.00       0.000000000000
      0.5500000000D+00  0.1000000000D+01
 ****
      2 0
 S   7 1.00       0.000000000000
      0.6665000000D+04  0.6935163173D-03
      0.1000000000D+04  0.5341502433D-02
      0.2280000000D+03  0.2713667141D-01
      0.6471000000D+02  0.1019923853D+00
      0.2106000000D+02  0.2755086365D+00
      0.7495000000D+01  0.4510864331D+00
      0.2797000000D+01  0.2875657448D+00
 S   7 1.00       0.000000000000
      0.6665000000D+04  0.6283132185D-06
      0.1000000000D+04 -0.5484799995D-04
      0.6471000000D+02 -0.3631370641D-02
      0.2106000000D+02 -0.1179836986D-01
      0.7495000000D+01 -0.1109098848D+00
      0.2797000000D+01 -0.1347422469D+00
      0.5215000000D+00  0.1101758493D+01
 S   1 1.00       0.000000000000
      0.1596000000D+00  0.1000000000D+01
 P   3 1.00       0.000000000000
      0.9439000000D+01  0.5697925159D-01
      0.2002000000D+01  0.3132072115D+00
      0.5456000000D+00  0.7603767417D+00
 P   1 1.00       0.000000000000
      0.1517000000D+00  0.1000000000D+01
 D   1 1.00       0.000000000000
      0.5500000000D+00  0.1000000000D+01
 ****
      3 0
 S   7 1.00       0.000000000000
      0.1172000000D+05  0.7118644339D-03
      0.1759000000D+04  0.5485201992D-02
      0.4008000000D+03  0.2790992963D-01
      0.1137000000D+03  0.1051332075D+00
      0.3703000000D+02  0.2840024898D+00
      0.1327000000D+02  0.4516739459D+00
      0.5025000000D+01  0.2732081255D+00
 S   7 1.00       0.000000000000
      0.1172000000D+05 -0.3061230940D-06
      0.1759000000D+04 -0.6176233985D-04
      0.1137000000D+03 -0.4157270688D-02
      0.3703000000D+02 -0.1410008840D-01
      0.1327000000D+02 -0.1261384807D+00
      0.5025000000D+01 -0.1096145977D+00
      0.1013000000D+01  0.1098688332D+01
 S   1 1.00       0.000000000000
      0.3023000000D+00  0.1000000000D+01
 P   3 1.00       0.000000000000
      0.1770000000D+02  0.6267916628D-01
      0.3854000000D+01  0.3335365659D+00
      0.1046000000D+01  0.7412396416D+00
 P   1 1.00       0.000000000000
      0.2753000000D+00  0.1000000000D+01
 D   1 1.00       0.000000000000
      0.1185000000D+01  0.1000000000D+01
 ****
      4 0
 S   3 1.00       0.000000000000
      0.1301000000D+02  0.3349872639D-01
      0.1962000000D+01  0.2348008012D+00
      0.4446000000D+00  0.8136829579D+00
 S   1 1.00       0.000000000000
      0.1220000000D+00  0.1000000000D+01
 P   1 1.00       0.000000000000
      0.7270000000D+00  0.1000000000D+01
 ****
      5 0
 S   3 1.00       0.000000000000
      0.1301000000D+02  0.3349872639D-01
      0.1962000000D+01  0.2348008012D+00
      0.4446000000D+00  0.8136829579D+00
 S   1 1.00       0.000000000000
      0.1220000000D+00  0.1000000000D+01
 P   1 1.00       0.000000000000
      0.7270000000D+00  0.1000000000D+01
 ****
      6 0
 S   3 1.00       0.000000000000
      0.1301000000D+02  0.3349872639D-01
      0.1962000000D+01  0.2348008012D+00
      0.4446000000D+00  0.8136829579D+00
 S   1 1.00       0.000000000000
      0.1220000000D+00  0.1000000000D+01
 P   1 1.00       0.000000000000
      0.7270000000D+00  0.1000000000D+01
 ****
      7 0
 S   3 1.00       0.000000000000
      0.1301000000D+02  0.3349872639D-01
      0.1962000000D+01  0.2348008012D+00
      0.4446000000D+00  0.8136829579D+00
 S   1 1.00       0.000000000000
      0.1220000000D+00  0.1000000000D+01
 P   1 1.00       0.000000000000
      0.7270000000D+00  0.1000000000D+01
 ****
      8 0
 S   3 1.00       0.000000000000
      0.1301000000D+02  0.3349872639D-01
      0.1962000000D+01  0.2348008012D+00
      0.4446000000D+00  0.8136829579D+00
 S   1 1.00       0.000000000000
      0.1220000000D+00  0.1000000000D+01
 P   1 1.00       0.000000000000
      0.7270000000D+00  0.1000000000D+01
 ****
      9 0
 S   3 1.00       0.000000000000
      0.1301000000D+02  0.3349872639D-01
      0.1962000000D+01  0.2348008012D+00
      0.4446000000D+00  0.8136829579D+00
 S   1 1.00       0.000000000000
      0.1220000000D+00  0.1000000000D+01
 P   1 1.00       0.000000000000
      0.7270000000D+00  0.1000000000D+01
 ****

 AO basis set:
 Atom C1       Shell     1 S   7     bf    1 -     1          2.211250578730         -0.778900007368          0.000000000000
      0.6665000000D+04  0.6935163173D-03
      0.1000000000D+04  0.5341502433D-02
      0.2280000000D+03  0.2713667141D-01
      0.6471000000D+02  0.1019923853D+00
      0.2106000000D+02  0.2755086365D+00
      0.7495000000D+01  0.4510864331D+00
      0.2797000000D+01  0.2875657448D+00
 Atom C1       Shell     2 S   7     bf    2 -     2          2.211250578730         -0.778900007368          0.000000000000
      0.6665000000D+04  0.6283132185D-06
      0.1000000000D+04 -0.5484799995D-04
      0.6471000000D+02 -0.3631370641D-02
      0.2106000000D+02 -0.1179836986D-01
      0.7495000000D+01 -0.1109098848D+00
      0.2797000000D+01 -0.1347422469D+00
      0.5215000000D+00  0.1101758493D+01
 Atom C1       Shell     3 S   1     bf    3 -     3          2.211250578730         -0.778900007368          0.000000000000
      0.1596000000D+00  0.1000000000D+01
 Atom C1       Shell     4 P   3     bf    4 -     6          2.211250578730         -0.778900007368          0.000000000000
      0.9439000000D+01  0.5697925159D-01
      0.2002000000D+01  0.3132072115D+00
      0.5456000000D+00  0.7603767417D+00
 Atom C1       Shell     5 P   1     bf    7 -     9          2.211250578730         -0.778900007368          0.000000000000
      0.1517000000D+00  0.1000000000D+01
 Atom C1       Shell     6 D   1     bf   10 -    14          2.211250578730         -0.778900007368          0.000000000000
      0.5500000000D+00  0.1000000000D+01
 Atom C2       Shell     7 S   7     bf   15 -    15          0.000000000000          1.048983675876          0.000000000000
      0.6665000000D+04  0.6935163173D-03
      0.1000000000D+04  0.5341502433D-02
      0.2280000000D+03  0.2713667141D-01
      0.6471000000D+02  0.1019923853D+00
      0.2106000000D+02  0.2755086365D+00
      0.7495000000D+01  0.4510864331D+00
      0.2797000000D+01  0.2875657448D+00
 Atom C2       Shell     8 S   7     bf   16 -    16          0.000000000000          1.048983675876          0.000000000000
      0.6665000000D+04  0.6283132185D-06
      0.1000000000D+04 -0.5484799995D-04
      0.6471000000D+02 -0.3631370641D-02
      0.2106000000D+02 -0.1179836986D-01
      0.7495000000D+01 -0.1109098848D+00
      0.2797000000D+01 -0.1347422469D+00
      0.5215000000D+00  0.1101758493D+01
 Atom C2       Shell     9 S   1     bf   17 -    17          0.000000000000          1.048983675876          0.000000000000
      0.1596000000D+00  0.1000000000D+01
 Atom C2       Shell    10 P   3     bf   18 -    20          0.000000000000          1.048983675876          0.000000000000
      0.9439000000D+01  0.5697925159D-01
      0.2002000000D+01  0.3132072115D+00
      0.5456000000D+00  0.7603767417D+00
 Atom C2       Shell    11 P   1     bf   21 -    23          0.000000000000          1.048983675876          0.000000000000
      0.1517000000D+00  0.1000000000D+01
 Atom C2       Shell    12 D   1     bf   24 -    28          0.000000000000          1.048983675876          0.000000000000
      0.5500000000D+00  0.1000000000D+01
 Atom O3       Shell    13 S   7     bf   29 -    29         -2.264431669838         -0.401792717942          0.000000000000
      0.1172000000D+05  0.7118644339D-03
      0.1759000000D+04  0.5485201992D-02
      0.4008000000D+03  0.2790992963D-01
      0.1137000000D+03  0.1051332075D+00
      0.3703000000D+02  0.2840024898D+00
      0.1327000000D+02  0.4516739459D+00
      0.5025000000D+01  0.2732081255D+00
 Atom O3       Shell    14 S   7     bf   30 -    30         -2.264431669838         -0.401792717942          0.000000000000
      0.1172000000D+05 -0.3061230940D-06
      0.1759000000D+04 -0.6176233985D-04
      0.1137000000D+03 -0.4157270688D-02
      0.3703000000D+02 -0.1410008840D-01
      0.1327000000D+02 -0.1261384807D+00
      0.5025000000D+01 -0.1096145977D+00
      0.1013000000D+01  0.1098688332D+01
 Atom O3       Shell    15 S   1     bf   31 -    31         -2.264431669838         -0.401792717942          0.000000000000
      0.3023000000D+00  0.1000000000D+01
 Atom O3       Shell    16 P   3     bf   32 -    34         -2.264431669838         -0.401792717942          0.000000000000
      0.1770000000D+02  0.6267916628D-01
      0.3854000000D+01  0.3335365659D+00
      0.1046000000D+01  0.7412396416D+00
 Atom O3       Shell    17 P   1     bf   35 -    37         -2.264431669838         -0.401792717942          0.000000000000
      0.2753000000D+00  0.1000000000D+01
 Atom O3       Shell    18 D   1     bf   38 -    42         -2.264431669838         -0.401792717942          0.000000000000
      0.1185000000D+01  0.1000000000D+01
 Atom H4       Shell    19 S   3     bf   43 -    43          4.023047270557          0.248081319222          0.000000000000
      0.1301000000D+02  0.3349872639D-01
      0.1962000000D+01  0.2348008012D+00
      0.4446000000D+00  0.8136829579D+00
 Atom H4       Shell    20 S   1     bf   44 -    44          4.023047270557          0.248081319222          0.000000000000
      0.1220000000D+00  0.1000000000D+01
 Atom H4       Shell    21 P   1     bf   45 -    47          4.023047270557          0.248081319222          0.000000000000
      0.7270000000D+00  0.1000000000D+01
 Atom H5       Shell    22 S   3     bf   48 -    48          2.143523193272         -2.000978103006          1.684405309103
      0.1301000000D+02  0.3349872639D-01
      0.1962000000D+01  0.2348008012D+00
      0.4446000000D+00  0.8136829579D+00
 Atom H5       Shell    23 S   1     bf   49 -    49          2.143523193272         -2.000978103006          1.684405309103
      0.1220000000D+00  0.1000000000D+01
 Atom H5       Shell    24 P   1     bf   50 -    52          2.143523193272         -2.000978103006          1.684405309103
      0.7270000000D+00  0.1000000000D+01
 Atom H6       Shell    25 S   3     bf   53 -    53          2.143523193272         -2.000978103006         -1.684405309103
      0.1301000000D+02  0.3349872639D-01
      0.1962000000D+01  0.2348008012D+00
      0.4446000000D+00  0.8136829579D+00
 Atom H6       Shell    26 S   1     bf   54 -    54          2.143523193272         -2.000978103006         -1.684405309103
      0.1220000000D+00  0.1000000000D+01
 Atom H6       Shell    27 P   1     bf   55 -    57          2.143523193272         -2.000978103006         -1.684405309103
      0.7270000000D+00  0.1000000000D+01
 Atom H7       Shell    28 S   3     bf   58 -    58          0.106089334959          2.292667174230          1.686227817919
      0.1301000000D+02  0.3349872639D-01
      0.1962000000D+01  0.2348008012D+00
      0.4446000000D+00  0.8136829579D+00
 Atom H7       Shell    29 S   1     bf   59 -    59          0.106089334959          2.292667174230          1.686227817919
      0.1220000000D+00  0.1000000000D+01
 Atom H7       Shell    30 P   1     bf   60 -    62          0.106089334959          2.292667174230          1.686227817919
      0.7270000000D+00  0.1000000000D+01
 Atom H8       Shell    31 S   3     bf   63 -    63          0.106089334959          2.292667174230         -1.686227817919
      0.1301000000D+02  0.3349872639D-01
      0.1962000000D+01  0.2348008012D+00
      0.4446000000D+00  0.8136829579D+00
 Atom H8       Shell    32 S   1     bf   64 -    64          0.106089334959          2.292667174230         -1.686227817919
      0.1220000000D+00  0.1000000000D+01
 Atom H8       Shell    33 P   1     bf   65 -    67          0.106089334959          2.292667174230         -1.686227817919
      0.7270000000D+00  0.1000000000D+01
 Atom H9       Shell    34 S   3     bf   68 -    68         -3.674322440693          0.762380270812          0.000000000000
      0.1301000000D+02  0.3349872639D-01
      0.1962000000D+01  0.2348008012D+00
      0.4446000000D+00  0.8136829579D+00
 Atom H9       Shell    35 S   1     bf   69 -    69         -3.674322440693          0.762380270812          0.000000000000
      0.1220000000D+00  0.1000000000D+01
 Atom H9       Shell    36 P   1     bf   70 -    72         -3.674322440693          0.762380270812          0.000000000000
      0.7270000000D+00  0.1000000000D+01
 There are    48 symmetry adapted basis functions of A'  symmetry.
 There are    24 symmetry adapted basis functions of A"  symmetry.
 Integral buffers will be    131072 words long.
 Raffenetti 1 integral format.
 Two-electron integral symmetry is turned on.
    72 basis functions,   141 primitive gaussians,    75 cartesian basis functions
    13 alpha electrons       13 beta electrons
       nuclear repulsion energy        81.5361279352 Hartrees.
 IExCor=   0 DFT=F Ex=HF Corr=None ExCW=0 ScaHFX=  1.000000
 ScaDFX=  1.000000  1.000000  1.000000  1.000000
 IRadAn=      0 IRanWt=     -1 IRanGd=            0 ICorTp=0
 NAtoms=    9 NActive=    9 NUniq=    7 SFac= 1.24D+00 NAtFMM=   80 NAOKFM=F Big=F
 Leave Link  301 at Mon Dec  7 21:54:07 2009, MaxMem=    6291456 cpu:       0.0
 (Enter /usr/local/gaussian/g03/l302.exe)
 NPDir=0 NMtPBC=     1 NCelOv=     1 NCel=       1 NClECP=     1 NCelD=      1
         NCelK=      1 NCelE2=     1 NClLst=     1 CellRange=     0.0.
 One-electron integrals computed using PRISM.
 One-electron integral symmetry used in STVInt
 NBasis=    72 RedAO= T  NBF=    48    24
 NBsUse=    72 1.00D-06 NBFU=    48    24
 Leave Link  302 at Mon Dec  7 21:54:07 2009, MaxMem=    6291456 cpu:       0.1
 (Enter /usr/local/gaussian/g03/l308.exe)
 Leave Link  308 at Mon Dec  7 21:54:07 2009, MaxMem=    6291456 cpu:       0.0
 (Enter /usr/local/gaussian/g03/l303.exe)
 DipDrv:  MaxL=1.
 Leave Link  303 at Mon Dec  7 21:54:07 2009, MaxMem=    6291456 cpu:       0.0
 (Enter /usr/local/gaussian/g03/l401.exe)
 Harris functional with IExCor=  205 diagonalized for initial guess.
 ExpMin= 1.22D-01 ExpMax= 1.17D+04 ExpMxC= 4.01D+02 IAcc=1 IRadAn=         1 AccDes= 1.00D-06
 HarFok:  IExCor= 205 AccDes= 1.00D-06 IRadAn=         1 IDoV=1
 ScaDFX=  1.000000  1.000000  1.000000  1.000000
 Harris En= -154.375223068769    
 Initial guess orbital symmetries:
       Occupied  (A') (A') (A') (A') (A') (A') (A') (A") (A') (A')
                 (A") (A') (A")
       Virtual   (A') (A') (A") (A') (A') (A') (A") (A') (A") (A')
                 (A') (A') (A") (A') (A') (A") (A') (A") (A') (A')
                 (A') (A") (A') (A') (A") (A') (A") (A') (A') (A")
                 (A") (A') (A') (A") (A") (A') (A") (A') (A') (A")
                 (A') (A') (A") (A') (A') (A') (A") (A') (A') (A')
                 (A') (A") (A') (A") (A") (A") (A') (A') (A')
 The electronic state of the initial guess is 1-A'.
 Leave Link  401 at Mon Dec  7 21:54:07 2009, MaxMem=    6291456 cpu:       0.1
 (Enter /usr/local/gaussian/g03/l502.exe)
 Closed shell SCF:
 Requested convergence on RMS density matrix=1.00D-08 within 128 cycles.
 Requested convergence on MAX density matrix=1.00D-06.
 Requested convergence on             energy=1.00D-06.
 No special actions if energy rises.
 Using DIIS extrapolation, IDIIS=  1040.
 Integral symmetry usage will be decided dynamically.
 Keep R1 integrals in memory in canonical form, NReq=     5139956.
 IEnd=     37817 IEndB=     37817 NGot=   6291456 MDV=   2213291
 LenX=   2213291
 Symmetry not used in FoFDir.
 MinBra= 0 MaxBra= 2 Meth= 1.
 IRaf=       0 NMat=   1 IRICut=       1 DoRegI=T DoRafI=F ISym2E= 0 JSym2E=0.

 Cycle   1  Pass 1  IDiag  1:
 E= -153.891569269681    
 DIIS: error= 5.21D-02 at cycle   1 NSaved=   1.
 NSaved= 1 IEnMin= 1 EnMin= -153.891569269681     IErMin= 1 ErrMin= 5.21D-02
 ErrMax= 5.21D-02 EMaxC= 1.00D-01 BMatC= 2.29D-01 BMatP= 2.29D-01
 IDIUse=3 WtCom= 4.79D-01 WtEn= 5.21D-01
 Coeff-Com:  0.100D+01
 Coeff-En:   0.100D+01
 Coeff:      0.100D+01
 Gap=     0.581 Goal=   None    Shift=    0.000
 GapD=    0.581 DampG=2.000 DampE=0.500 DampFc=1.0000 IDamp=-1.
 RMSDP=6.76D-03 MaxDP=1.24D-01              OVMax= 1.32D-01

 Cycle   2  Pass 1  IDiag  1:
 E= -154.050626655449     Delta-E=       -0.159057385768 Rises=F Damp=F
 DIIS: error= 2.15D-02 at cycle   2 NSaved=   2.
 NSaved= 2 IEnMin= 2 EnMin= -154.050626655449     IErMin= 2 ErrMin= 2.15D-02
 ErrMax= 2.15D-02 EMaxC= 1.00D-01 BMatC= 4.71D-02 BMatP= 2.29D-01
 IDIUse=3 WtCom= 7.85D-01 WtEn= 2.15D-01
 Coeff-Com:  0.286D+00 0.714D+00
 Coeff-En:   0.000D+00 0.100D+01
 Coeff:      0.225D+00 0.775D+00
 Gap=     0.639 Goal=   None    Shift=    0.000
 RMSDP=2.57D-03 MaxDP=4.15D-02 DE=-1.59D-01 OVMax= 4.79D-02

 Cycle   3  Pass 1  IDiag  1:
 E= -154.089854420890     Delta-E=       -0.039227765441 Rises=F Damp=F
 DIIS: error= 3.03D-03 at cycle   3 NSaved=   3.
 NSaved= 3 IEnMin= 3 EnMin= -154.089854420890     IErMin= 3 ErrMin= 3.03D-03
 ErrMax= 3.03D-03 EMaxC= 1.00D-01 BMatC= 1.75D-03 BMatP= 4.71D-02
 IDIUse=3 WtCom= 9.70D-01 WtEn= 3.03D-02
 Coeff-Com: -0.204D-01 0.117D+00 0.903D+00
 Coeff-En:   0.000D+00 0.000D+00 0.100D+01
 Coeff:     -0.198D-01 0.114D+00 0.906D+00
 Gap=     0.614 Goal=   None    Shift=    0.000
 RMSDP=4.02D-04 MaxDP=8.99D-03 DE=-3.92D-02 OVMax= 9.65D-03

 Cycle   4  Pass 1  IDiag  1:
 E= -154.091328177916     Delta-E=       -0.001473757026 Rises=F Damp=F
 DIIS: error= 7.27D-04 at cycle   4 NSaved=   4.
 NSaved= 4 IEnMin= 4 EnMin= -154.091328177916     IErMin= 4 ErrMin= 7.27D-04
 ErrMax= 7.27D-04 EMaxC= 1.00D-01 BMatC= 7.56D-05 BMatP= 1.75D-03
 IDIUse=3 WtCom= 9.93D-01 WtEn= 7.27D-03
 Coeff-Com: -0.116D-01 0.409D-02 0.203D+00 0.805D+00
 Coeff-En:   0.000D+00 0.000D+00 0.000D+00 0.100D+01
 Coeff:     -0.116D-01 0.406D-02 0.201D+00 0.806D+00
 Gap=     0.616 Goal=   None    Shift=    0.000
 RMSDP=1.11D-04 MaxDP=2.10D-03 DE=-1.47D-03 OVMax= 2.32D-03

 Cycle   5  Pass 1  IDiag  1:
 E= -154.091402859501     Delta-E=       -0.000074681585 Rises=F Damp=F
 DIIS: error= 2.65D-04 at cycle   5 NSaved=   5.
 NSaved= 5 IEnMin= 5 EnMin= -154.091402859501     IErMin= 5 ErrMin= 2.65D-04
 ErrMax= 2.65D-04 EMaxC= 1.00D-01 BMatC= 5.59D-06 BMatP= 7.56D-05
 IDIUse=3 WtCom= 9.97D-01 WtEn= 2.65D-03
 Coeff-Com:  0.146D-02-0.127D-01-0.858D-01 0.482D-01 0.105D+01
 Coeff-En:   0.000D+00 0.000D+00 0.000D+00 0.000D+00 0.100D+01
 Coeff:      0.145D-02-0.127D-01-0.856D-01 0.480D-01 0.105D+01
 Gap=     0.615 Goal=   None    Shift=    0.000
 RMSDP=4.19D-05 MaxDP=4.31D-04 DE=-7.47D-05 OVMax= 1.07D-03

 Cycle   6  Pass 1  IDiag  1:
 E= -154.091411190056     Delta-E=       -0.000008330554 Rises=F Damp=F
 DIIS: error= 3.44D-05 at cycle   6 NSaved=   6.
 NSaved= 6 IEnMin= 6 EnMin= -154.091411190056     IErMin= 6 ErrMin= 3.44D-05
 ErrMax= 3.44D-05 EMaxC= 1.00D-01 BMatC= 1.38D-07 BMatP= 5.59D-06
 IDIUse=1 WtCom= 1.00D+00 WtEn= 0.00D+00
 Coeff-Com:  0.561D-03-0.989D-03-0.117D-01-0.324D-01 0.226D-01 0.102D+01
 Coeff:      0.561D-03-0.989D-03-0.117D-01-0.324D-01 0.226D-01 0.102D+01
 Gap=     0.615 Goal=   None    Shift=    0.000
 RMSDP=9.22D-06 MaxDP=1.13D-04 DE=-8.33D-06 OVMax= 1.87D-04

 Cycle   7  Pass 1  IDiag  1:
 E= -154.091411458296     Delta-E=       -0.000000268241 Rises=F Damp=F
 DIIS: error= 9.16D-06 at cycle   7 NSaved=   7.
 NSaved= 7 IEnMin= 7 EnMin= -154.091411458296     IErMin= 7 ErrMin= 9.16D-06
 ErrMax= 9.16D-06 EMaxC= 1.00D-01 BMatC= 8.99D-09 BMatP= 1.38D-07
 IDIUse=1 WtCom= 1.00D+00 WtEn= 0.00D+00
 Coeff-Com: -0.377D-04 0.427D-03 0.320D-02-0.486D-02-0.440D-01 0.580D-01
 Coeff-Com:  0.987D+00
 Coeff:     -0.377D-04 0.427D-03 0.320D-02-0.486D-02-0.440D-01 0.580D-01
 Coeff:      0.987D+00
 Gap=     0.616 Goal=   None    Shift=    0.000
 RMSDP=2.11D-06 MaxDP=2.63D-05 DE=-2.68D-07 OVMax= 5.18D-05

 Cycle   8  Pass 1  IDiag  1:
 E= -154.091411473649     Delta-E=       -0.000000015353 Rises=F Damp=F
 DIIS: error= 2.84D-06 at cycle   8 NSaved=   8.
 NSaved= 8 IEnMin= 8 EnMin= -154.091411473649     IErMin= 8 ErrMin= 2.84D-06
 ErrMax= 2.84D-06 EMaxC= 1.00D-01 BMatC= 7.78D-10 BMatP= 8.99D-09
 IDIUse=1 WtCom= 1.00D+00 WtEn= 0.00D+00
 Coeff-Com: -0.488D-04 0.112D-03 0.127D-02 0.240D-02-0.351D-02-0.871D-01
 Coeff-Com:  0.246D-01 0.106D+01
 Coeff:     -0.488D-04 0.112D-03 0.127D-02 0.240D-02-0.351D-02-0.871D-01
 Coeff:      0.246D-01 0.106D+01
 Gap=     0.616 Goal=   None    Shift=    0.000
 RMSDP=6.72D-07 MaxDP=1.12D-05 DE=-1.54D-08 OVMax= 1.60D-05

 Cycle   9  Pass 1  IDiag  1:
 E= -154.091411475205     Delta-E=       -0.000000001556 Rises=F Damp=F
 DIIS: error= 6.66D-07 at cycle   9 NSaved=   9.
 NSaved= 9 IEnMin= 9 EnMin= -154.091411475205     IErMin= 9 ErrMin= 6.66D-07
 ErrMax= 6.66D-07 EMaxC= 1.00D-01 BMatC= 4.04D-11 BMatP= 7.78D-10
 IDIUse=1 WtCom= 1.00D+00 WtEn= 0.00D+00
 Coeff-Com:  0.740D-05-0.348D-04-0.328D-03-0.190D-03 0.243D-02 0.142D-01
 Coeff-Com: -0.602D-01-0.182D+00 0.123D+01
 Coeff:      0.740D-05-0.348D-04-0.328D-03-0.190D-03 0.243D-02 0.142D-01
 Coeff:     -0.602D-01-0.182D+00 0.123D+01
 Gap=     0.616 Goal=   None    Shift=    0.000
 RMSDP=1.87D-07 MaxDP=3.16D-06 DE=-1.56D-09 OVMax= 5.08D-06

 Cycle  10  Pass 1  IDiag  1:
 E= -154.091411475312     Delta-E=       -0.000000000106 Rises=F Damp=F
 DIIS: error= 1.36D-07 at cycle  10 NSaved=  10.
 NSaved=10 IEnMin=10 EnMin= -154.091411475312     IErMin=10 ErrMin= 1.36D-07
 ErrMax= 1.36D-07 EMaxC= 1.00D-01 BMatC= 1.81D-12 BMatP= 4.04D-11
 IDIUse=1 WtCom= 1.00D+00 WtEn= 0.00D+00
 Coeff-Com:  0.103D-05 0.413D-06-0.104D-04-0.113D-03-0.233D-03 0.292D-02
 Coeff-Com:  0.652D-02-0.305D-01-0.182D+00 0.120D+01
 Coeff:      0.103D-05 0.413D-06-0.104D-04-0.113D-03-0.233D-03 0.292D-02
 Coeff:      0.652D-02-0.305D-01-0.182D+00 0.120D+01
 Gap=     0.616 Goal=   None    Shift=    0.000
 RMSDP=4.55D-08 MaxDP=6.74D-07 DE=-1.06D-10 OVMax= 1.14D-06

 Cycle  11  Pass 1  IDiag  1:
 E= -154.091411475317     Delta-E=       -0.000000000005 Rises=F Damp=F
 DIIS: error= 3.26D-08 at cycle  11 NSaved=  11.
 NSaved=11 IEnMin=11 EnMin= -154.091411475317     IErMin=11 ErrMin= 3.26D-08
 ErrMax= 3.26D-08 EMaxC= 1.00D-01 BMatC= 7.17D-14 BMatP= 1.81D-12
 IDIUse=1 WtCom= 1.00D+00 WtEn= 0.00D+00
 Coeff-Com: -0.644D-06 0.146D-05 0.172D-04 0.441D-04-0.287D-04-0.158D-02
 Coeff-Com:  0.319D-03 0.178D-01 0.547D-02-0.364D+00 0.134D+01
 Coeff:     -0.644D-06 0.146D-05 0.172D-04 0.441D-04-0.287D-04-0.158D-02
 Coeff:      0.319D-03 0.178D-01 0.547D-02-0.364D+00 0.134D+01
 Gap=     0.616 Goal=   None    Shift=    0.000
 RMSDP=8.48D-09 MaxDP=1.17D-07 DE=-5.06D-12 OVMax= 2.09D-07

 SCF Done:  E(RHF) =  -154.091411475     A.U. after   11 cycles
             Convg  =    0.8477D-08             -V/T =  2.0015
             S**2   =   0.0000
 KE= 1.538530841786D+02 PE=-5.249278586025D+02 EE= 1.354472350133D+02
 Leave Link  502 at Mon Dec  7 21:54:08 2009, MaxMem=    6291456 cpu:       1.2
 (Enter /usr/local/gaussian/g03/l801.exe)
 Range of M.O.s used for correlation:     1    72
 NBasis=    72 NAE=    13 NBE=    13 NFC=     0 NFV=     0
 NROrb=     72 NOA=    13 NOB=    13 NVA=    59 NVB=    59
 Leave Link  801 at Mon Dec  7 21:54:08 2009, MaxMem=    6291456 cpu:       0.0
 (Enter /usr/local/gaussian/g03/l1002.exe)
 Minotr:  Closed-shell wavefunction.
 DoAtom=TTTTTTTTT
          Direct CPHF calculation.
          Solving linear equations simultaneously.
          Differentiating once with respect to magnetic field using GIAOs.
          Differentiating once with respect to nuclear magnetic moments.
          Differentiating once with respect to Fermi-contact and electric field gradient.
          Electric field/nuclear overlap derivatives assumed to be zero.
          Using symmetry in CPHF.
          Requested convergence is 1.0D-08 RMS, and 1.0D-07 maximum.
          Secondary convergence is 1.0D-12 RMS, and 1.0D-12 maximum.
          NewPWx=T KeepS1=F KeepF1=F KeepIn=T MapXYZ=F.
          MDV=       6291373 using IRadAn=       2.
 Symmetry not used in FoFDir.
 MinBra= 0 MaxBra= 2 Meth= 1.
 IRaf=       0 NMat=   1 IRICut=       1 DoRegI=T DoRafI=F ISym2E= 0 JSym2E=0.
          There are  24 degrees of freedom in the 1st order CPHF.
    24 vectors were produced by pass  0.
 AX will form  24 AO Fock derivatives at one time.
    24 vectors were produced by pass  1.
    24 vectors were produced by pass  2.
    24 vectors were produced by pass  3.
    24 vectors were produced by pass  4.
    24 vectors were produced by pass  5.
    18 vectors were produced by pass  6.
     4 vectors were produced by pass  7.
 Inv2:  IOpt= 1 Iter= 1 AM= 2.21D-15 Conv= 1.00D-12.
 Inverted reduced A of dimension  166 with in-core refinement.
 Calculating GIAO nuclear magnetic shielding tensors.
 SCF GIAO Magnetic shielding tensor (ppm):
  1  C    Isotropic =   182.9692   Anisotropy =    23.5352
   XX=   195.0752   YX=    -3.8227   ZX=     0.0000
   XY=    -9.8663   YY=   185.5884   ZY=     0.0000
   XZ=     0.0000   YZ=     0.0000   ZZ=   168.2441
   Eigenvalues:   168.2441   182.0043   198.6593
  2  C    Isotropic =   147.4609   Anisotropy =    52.6218
   XX=   171.3257   YX=    22.3452   ZX=     0.0000
   XY=    19.0270   YY=   144.3912   ZY=     0.0000
   XZ=     0.0000   YZ=     0.0000   ZZ=   126.6658
   Eigenvalues:   126.6658   133.1748   182.5421
  3  O    Isotropic =   323.8921   Anisotropy =   103.5347
   XX=   363.2032   YX=   -36.8346   ZX=     0.0000
   XY=   -60.6779   YY=   312.9083   ZY=     0.0000
   XZ=     0.0000   YZ=     0.0000   ZZ=   295.5649
   Eigenvalues:   283.1963   295.5649   392.9153
  4  H    Isotropic =    30.9050   Anisotropy =     9.5784
   XX=    36.5585   YX=     2.5706   ZX=     0.0000
   XY=     2.4019   YY=    28.8467   ZY=     0.0000
   XZ=     0.0000   YZ=     0.0000   ZZ=    27.3098
   Eigenvalues:    27.3098    28.1146    37.2906
  5  H    Isotropic =    30.3516   Anisotropy =     8.3659
   XX=    28.4782   YX=    -1.9075   ZX=     1.1231
   XY=    -1.2210   YY=    30.4906   ZY=    -4.5288
   XZ=     0.8674   YZ=    -3.7612   ZZ=    32.0860
   Eigenvalues:    26.8161    28.3098    35.9289
  6  H    Isotropic =    30.3516   Anisotropy =     8.3659
   XX=    28.4782   YX=    -1.9075   ZX=    -1.1231
   XY=    -1.2210   YY=    30.4906   ZY=     4.5288
   XZ=    -0.8674   YZ=     3.7612   ZZ=    32.0860
   Eigenvalues:    26.8161    28.3098    35.9289
  7  H    Isotropic =    28.4303   Anisotropy =     7.3449
   XX=    28.3241   YX=     1.5393   ZX=     1.5141
   XY=     0.7662   YY=    29.7097   ZY=     4.6228
   XZ=    -0.3699   YZ=     4.0856   ZZ=    27.2571
   Eigenvalues:    23.9461    28.0179    33.3269
  8  H    Isotropic =    28.4303   Anisotropy =     7.3449
   XX=    28.3241   YX=     1.5393   ZX=    -1.5141
   XY=     0.7662   YY=    29.7097   ZY=    -4.6228
   XZ=     0.3699   YZ=    -4.0856   ZZ=    27.2571
   Eigenvalues:    23.9461    28.0179    33.3269
  9  H    Isotropic =    31.6950   Anisotropy =    20.4169
   XX=    41.2230   YX=    -8.3642   ZX=     0.0000
   XY=    -6.5229   YY=    31.7370   ZY=     0.0000
   XZ=     0.0000   YZ=     0.0000   ZZ=    22.1250
   Eigenvalues:    22.1250    27.6538    45.3062
          There are  49 degrees of freedom in the 1st order CPHF.
    42 vectors were produced by pass  0.
    42 vectors were produced by pass  1.
    42 vectors were produced by pass  2.
    42 vectors were produced by pass  3.
    42 vectors were produced by pass  4.
    42 vectors were produced by pass  5.
    26 vectors were produced by pass  6.
    17 vectors were produced by pass  7.
 Inv2:  IOpt= 1 Iter= 1 AM= 3.81D-15 Conv= 1.00D-12.
 Inverted reduced A of dimension  295 with in-core refinement.
 Max diff in FC couplings:  IJMax=     3     2 Diff= 1.81D-05 IJMaxR=     9     8 DiffR= 8.85D-06
 Max diff in SD couplings:  IJMax=     3     2 Diff= 4.93D-08 IJMaxR=     8     5 DiffR= 3.46D-06
 There are a total of       69934 grid points.
 ElSum from density=       52.0000719705
 Fermi Contact (FC) contribution to K (Hz):
                1             2             3             4             5
      1  0.000000D+00
      2  0.363396D+02  0.000000D+00
      3  0.579743D+01  0.324251D+01  0.000000D+00
      4  0.191265D+02 -0.648560D+00  0.256613D+01  0.000000D+00
      5  0.197284D+02 -0.134228D+01  0.241773D+00 -0.734135D+00  0.000000D+00
      6  0.197284D+02 -0.134228D+01  0.241773D+00 -0.734135D+00 -0.730918D+00
      7 -0.994320D+00  0.212766D+02  0.713071D+00  0.707565D-01  0.159853D+00
      8 -0.994320D+00  0.212766D+02  0.713071D+00  0.707564D-01  0.438887D+00
      9  0.107158D+01 -0.811310D+00  0.196819D+02  0.808193D-01 -0.211540D-01
                6             7             8             9
      6  0.000000D+00
      7  0.438887D+00  0.000000D+00
      8  0.159853D+00 -0.518662D+00  0.000000D+00
      9 -0.211540D-01  0.228721D-01  0.228722D-01  0.000000D+00
 Fermi Contact (FC) contribution to J (Hz):
                1             2             3             4             5
      1  0.000000D+00
      2  0.717172D+02  0.000000D+00
      3 -0.616952D+01 -0.345062D+01  0.000000D+00
      4  0.150084D+03 -0.508919D+01 -0.108580D+02  0.000000D+00
      5  0.154807D+03 -0.105328D+02 -0.102301D+01 -0.229050D+02  0.000000D+00
      6  0.154807D+03 -0.105328D+02 -0.102301D+01 -0.229050D+02 -0.228046D+02
      7 -0.780234D+01  0.166956D+03 -0.301720D+01  0.220760D+01  0.498740D+01
      8 -0.780233D+01  0.166956D+03 -0.301720D+01  0.220760D+01  0.136933D+02
      9  0.840859D+01 -0.636627D+01 -0.832794D+02  0.252156D+01 -0.660004D+00
                6             7             8             9
      6  0.000000D+00
      7  0.136933D+02  0.000000D+00
      8  0.498740D+01 -0.161822D+02  0.000000D+00
      9 -0.660003D+00  0.713610D+00  0.713613D+00  0.000000D+00
 Spin-dipolar (SD) contribution to K (Hz):
                1             2             3             4             5
      1  0.000000D+00
      2  0.586115D+00  0.000000D+00
      3 -0.283410D-01  0.159661D+01  0.000000D+00
      4 -0.299791D-01  0.114100D-01 -0.898255D-02  0.000000D+00
      5 -0.257896D-01  0.109486D-01 -0.111841D-01  0.138972D-01  0.000000D+00
      6 -0.257896D-01  0.109486D-01 -0.111841D-01  0.138972D-01  0.149175D-01
      7  0.840798D-02 -0.443020D-01 -0.598524D-01  0.331833D-02  0.321702D-02
      8  0.840798D-02 -0.443020D-01 -0.598524D-01  0.331833D-02  0.108047D-02
      9  0.258911D-02  0.207495D-02 -0.184823D+00  0.112671D-02 -0.466686D-03
                6             7             8             9
      6  0.000000D+00
      7  0.108047D-02  0.000000D+00
      8  0.321702D-02  0.180723D-01  0.000000D+00
      9 -0.466686D-03  0.313976D-02  0.313976D-02  0.000000D+00
 Spin-dipolar (SD) contribution to J (Hz):
                1             2             3             4             5
      1  0.000000D+00
      2  0.115671D+01  0.000000D+00
      3  0.301600D-01 -0.169909D+01  0.000000D+00
      4 -0.235243D+00  0.895330D-01  0.380076D-01  0.000000D+00
      5 -0.202368D+00  0.859123D-01  0.473231D-01  0.433591D+00  0.000000D+00
      6 -0.202368D+00  0.859123D-01  0.473231D-01  0.433591D+00  0.465424D+00
      7  0.659766D-01 -0.347634D+00  0.253252D+00  0.103532D+00  0.100371D+00
      8  0.659766D-01 -0.347634D+00  0.253252D+00  0.103532D+00  0.337107D-01
      9  0.203165D-01  0.162819D-01  0.782038D+00  0.351532D-01 -0.145606D-01
                6             7             8             9
      6  0.000000D+00
      7  0.337107D-01  0.000000D+00
      8  0.100371D+00  0.563854D+00  0.000000D+00
      9 -0.145606D-01  0.979604D-01  0.979605D-01  0.000000D+00
 Paramagnetic spin-orbit (PSO) contribution to K (Hz):
                1             2             3             4             5
      1  0.000000D+00
      2 -0.250280D+00  0.000000D+00
      3 -0.538772D-01  0.122148D+01  0.000000D+00
      4  0.111172D+00  0.250808D-01  0.384714D-01  0.000000D+00
      5  0.960441D-01  0.140613D-01  0.317832D-01  0.666209D-01  0.000000D+00
      6  0.960441D-01  0.140613D-01  0.317832D-01  0.666209D-01  0.641422D-01
      7  0.170295D-01  0.118638D-01  0.124019D+00  0.154809D-01  0.160964D-01
      8  0.170295D-01  0.118638D-01  0.124019D+00  0.154809D-01  0.623077D-01
      9  0.694242D-01  0.753063D-01  0.270439D+01  0.553522D-01  0.577917D-01
                6             7             8             9
      6  0.000000D+00
      7  0.623077D-01  0.000000D+00
      8  0.160964D-01  0.531521D-01  0.000000D+00
      9  0.577917D-01  0.227406D-01  0.227406D-01  0.000000D+00
 Paramagnetic spin-orbit (PSO) contribution to J (Hz):
                1             2             3             4             5
      1  0.000000D+00
      2 -0.493935D+00  0.000000D+00
      3  0.573350D-01 -0.129988D+01  0.000000D+00
      4  0.872359D+00  0.196807D+00 -0.162783D+00  0.000000D+00
      5  0.753648D+00  0.110337D+00 -0.134483D+00  0.207857D+01  0.000000D+00
      6  0.753649D+00  0.110337D+00 -0.134483D+00  0.207857D+01  0.200123D+01
      7  0.133629D+00  0.930943D-01 -0.524759D+00  0.483004D+00  0.502205D+00
      8  0.133629D+00  0.930943D-01 -0.524759D+00  0.483004D+00  0.194400D+01
      9  0.544765D+00  0.590921D+00 -0.114430D+02  0.172699D+01  0.180310D+01
                6             7             8             9
      6  0.000000D+00
      7  0.194400D+01  0.000000D+00
      8  0.502205D+00  0.165834D+01  0.000000D+00
      9  0.180310D+01  0.709505D+00  0.709505D+00  0.000000D+00
 Diamagnetic spin-orbit (DSO) contribution to K (Hz):
                1             2             3             4             5
      1  0.000000D+00
      2  0.864418D-01  0.000000D+00
      3 -0.735200D-02  0.916752D-01  0.000000D+00
      4  0.736984D-01 -0.250907D-01 -0.675328D-01  0.000000D+00
      5  0.770178D-01 -0.246674D-01 -0.433491D-02 -0.854458D-01  0.000000D+00
      6  0.770178D-01 -0.246674D-01 -0.433491D-02 -0.854458D-01 -0.811410D-01
      7 -0.307924D-01  0.107337D+00 -0.476410D-01 -0.188297D-01 -0.205121D-01
      8 -0.307924D-01  0.107337D+00 -0.476410D-01 -0.188297D-01 -0.943460D-01
      9 -0.101276D+00 -0.746786D-01  0.863103D-01 -0.797855D-01 -0.848069D-01
                6             7             8             9
      6  0.000000D+00
      7 -0.943460D-01  0.000000D+00
      8 -0.205121D-01 -0.688140D-01  0.000000D+00
      9 -0.848069D-01 -0.327206D-01 -0.327206D-01  0.000000D+00
 Diamagnetic spin-orbit (DSO) contribution to J (Hz):
                1             2             3             4             5
      1  0.000000D+00
      2  0.170595D+00  0.000000D+00
      3  0.782386D-02 -0.975589D-01  0.000000D+00
      4  0.578304D+00 -0.196884D+00  0.285750D+00  0.000000D+00
      5  0.604352D+00 -0.193562D+00  0.183422D-01 -0.266590D+01  0.000000D+00
      6  0.604352D+00 -0.193562D+00  0.183422D-01 -0.266590D+01 -0.253159D+01
      7 -0.241625D+00  0.842259D+00  0.201582D+00 -0.587486D+00 -0.639978D+00
      8 -0.241625D+00  0.842259D+00  0.201582D+00 -0.587486D+00 -0.294359D+01
      9 -0.794702D+00 -0.585996D+00 -0.365202D+00 -0.248930D+01 -0.264597D+01
                6             7             8             9
      6  0.000000D+00
      7 -0.294359D+01  0.000000D+00
      8 -0.639978D+00 -0.214699D+01  0.000000D+00
      9 -0.264597D+01 -0.102088D+01 -0.102088D+01  0.000000D+00
 Total nuclear spin-spin coupling K (Hz): 
                1             2             3             4             5
      1  0.000000D+00
      2  0.367619D+02  0.000000D+00
      3  0.570786D+01  0.615228D+01  0.000000D+00
      4  0.192814D+02 -0.637160D+00  0.252808D+01  0.000000D+00
      5  0.198757D+02 -0.134194D+01  0.258037D+00 -0.739063D+00  0.000000D+00
      6  0.198757D+02 -0.134194D+01  0.258037D+00 -0.739063D+00 -0.732999D+00
      7 -0.999675D+00  0.213515D+02  0.729597D+00  0.707260D-01  0.158654D+00
      8 -0.999675D+00  0.213515D+02  0.729597D+00  0.707260D-01  0.407929D+00
      9  0.104232D+01 -0.808607D+00  0.222878D+02  0.575127D-01 -0.486359D-01
                6             7             8             9
      6  0.000000D+00
      7  0.407929D+00  0.000000D+00
      8  0.158654D+00 -0.516252D+00  0.000000D+00
      9 -0.486359D-01  0.160319D-01  0.160320D-01  0.000000D+00
 Total nuclear spin-spin coupling J (Hz): 
                1             2             3             4             5
      1  0.000000D+00
      2  0.725506D+02  0.000000D+00
      3 -0.607420D+01 -0.654714D+01  0.000000D+00
      4  0.151299D+03 -0.499973D+01 -0.106970D+02  0.000000D+00
      5  0.155963D+03 -0.105301D+02 -0.109183D+01 -0.230587D+02  0.000000D+00
      6  0.155963D+03 -0.105301D+02 -0.109183D+01 -0.230587D+02 -0.228695D+02
      7 -0.784436D+01  0.167543D+03 -0.308712D+01  0.220665D+01  0.495000D+01
      8 -0.784435D+01  0.167543D+03 -0.308712D+01  0.220665D+01  0.127274D+02
      9  0.817897D+01 -0.634506D+01 -0.943056D+02  0.179439D+01 -0.151744D+01
                6             7             8             9
      6  0.000000D+00
      7  0.127274D+02  0.000000D+00
      8  0.495000D+01 -0.161070D+02  0.000000D+00
      9 -0.151744D+01  0.500194D+00  0.500197D+00  0.000000D+00
 End of Minotr Frequency-dependent properties file   721 does not exist.
 Leave Link 1002 at Mon Dec  7 21:54:40 2009, MaxMem=    6291456 cpu:      30.6
 (Enter /usr/local/gaussian/g03/l601.exe)
 Copying SCF densities to generalized density rwf, ISCF=0 IROHF=0.

 **********************************************************************

            Population analysis using the SCF density.

 **********************************************************************

 Orbital symmetries:
       Occupied  (A') (A') (A') (A') (A') (A') (A') (A") (A') (A')
                 (A") (A') (A")
       Virtual   (A') (A') (A") (A') (A') (A") (A') (A') (A") (A')
                 (A') (A') (A") (A') (A') (A") (A') (A") (A') (A')
                 (A') (A") (A') (A') (A") (A') (A") (A') (A') (A")
                 (A") (A') (A") (A") (A') (A') (A") (A') (A") (A')
                 (A') (A') (A") (A') (A') (A') (A") (A') (A') (A')
                 (A') (A") (A') (A") (A") (A") (A') (A') (A')
 The electronic state is 1-A'.
 Alpha  occ. eigenvalues --  -20.55012 -11.28000 -11.22138  -1.35023  -1.00639
 Alpha  occ. eigenvalues --   -0.82733  -0.69086  -0.63649  -0.56497  -0.52723
 Alpha  occ. eigenvalues --   -0.51829  -0.48259  -0.43427
 Alpha virt. eigenvalues --    0.18126   0.21446   0.24561   0.24750   0.26782
 Alpha virt. eigenvalues --    0.29303   0.37924   0.39774   0.60497   0.61525
 Alpha virt. eigenvalues --    0.66110   0.74978   0.75034   0.80492   0.85847
 Alpha virt. eigenvalues --    0.86528   0.88582   0.89459   0.90291   0.93378
 Alpha virt. eigenvalues --    1.12882   1.15133   1.17383   1.25926   1.32705
 Alpha virt. eigenvalues --    1.42543   1.46862   1.51596   1.57165   1.59404
 Alpha virt. eigenvalues --    1.68618   1.77160   1.86461   1.87890   1.88750
 Alpha virt. eigenvalues --    1.91460   1.93127   1.96190   1.96879   1.99474
 Alpha virt. eigenvalues --    2.09214   2.17929   2.22622   2.27414   2.31047
 Alpha virt. eigenvalues --    2.47457   2.50082   2.52272   2.56792   2.73438
 Alpha virt. eigenvalues --    2.74530   2.78245   2.87451   2.89067   3.32230
 Alpha virt. eigenvalues --    3.40363   3.46360   3.60278   4.11002
     Molecular Orbital Coefficients
                           1         2         3         4         5
                        (A')--O   (A')--O   (A')--O   (A')--O   (A')--O
     EIGENVALUES --   -20.55012 -11.28000 -11.22138  -1.35023  -1.00639
   1 1   C  1S          0.00001   0.00524   0.99750  -0.01443  -0.14630
   2        2S         -0.00001  -0.00002   0.01866   0.03203   0.29505
   3        3S         -0.00081   0.00238  -0.00950   0.01528   0.18557
   4        4PX         0.00013  -0.00010   0.00017  -0.02298  -0.04906
   5        4PY        -0.00006   0.00009  -0.00005   0.00974   0.04727
   6        4PZ         0.00000   0.00000   0.00000   0.00000   0.00000
   7        5PX         0.00036  -0.00097   0.00077  -0.00070  -0.00906
   8        5PY        -0.00010   0.00090  -0.00046   0.00768   0.01346
   9        5PZ         0.00000   0.00000   0.00000   0.00000   0.00000
  10        6D 0       -0.00004   0.00004   0.00008  -0.00146  -0.00655
  11        6D+1        0.00000   0.00000   0.00000   0.00000   0.00000
  12        6D-1        0.00000   0.00000   0.00000   0.00000   0.00000
  13        6D+2       -0.00003  -0.00008  -0.00001   0.00340   0.00014
  14        6D-2        0.00011   0.00009   0.00021  -0.00532  -0.01297
  15 2   C  1S         -0.00004   0.99754  -0.00541  -0.06758  -0.11458
  16        2S         -0.00015   0.01794  -0.00015   0.13657   0.24261
  17        3S          0.00315  -0.00883   0.00226   0.04554   0.16099
  18        4PX        -0.00031  -0.00058   0.00009  -0.08382   0.10417
  19        4PY        -0.00011  -0.00019  -0.00006  -0.05495  -0.04122
  20        4PZ         0.00000   0.00000   0.00000   0.00000   0.00000
  21        5PX        -0.00101  -0.00109   0.00084  -0.01532   0.04390
  22        5PY        -0.00098   0.00042  -0.00063  -0.00673  -0.01513
  23        5PZ         0.00000   0.00000   0.00000   0.00000   0.00000
  24        6D 0        0.00005   0.00010   0.00013  -0.01674  -0.00830
  25        6D+1        0.00000   0.00000   0.00000   0.00000   0.00000
  26        6D-1        0.00000   0.00000   0.00000   0.00000   0.00000
  27        6D+2        0.00003  -0.00005  -0.00002   0.01546  -0.00145
  28        6D-2       -0.00009   0.00012   0.00015   0.01841  -0.01699
  29 3   O  1S          0.99733  -0.00007   0.00000  -0.19666   0.04878
  30        2S          0.01577   0.00031  -0.00007   0.42135  -0.10899
  31        3S         -0.00514  -0.00011  -0.00013   0.41345  -0.11633
  32        4PX         0.00001   0.00020  -0.00006   0.01566   0.10726
  33        4PY         0.00158   0.00013   0.00001   0.07550  -0.00287
  34        4PZ         0.00000   0.00000   0.00000   0.00000   0.00000
  35        5PX        -0.00114  -0.00022   0.00029   0.03142   0.04336
  36        5PY        -0.00129  -0.00052  -0.00019   0.01365   0.01791
  37        5PZ         0.00000   0.00000   0.00000   0.00000   0.00000
  38        6D 0        0.00008   0.00020  -0.00001  -0.00636  -0.00189
  39        6D+1        0.00000   0.00000   0.00000   0.00000   0.00000
  40        6D-1        0.00000   0.00000   0.00000   0.00000   0.00000
  41        6D+2       -0.00002  -0.00007   0.00002   0.00201   0.00263
  42        6D-2       -0.00023  -0.00015   0.00000   0.00359   0.00792
  43 4   H  1S         -0.00003  -0.00010   0.00001   0.00558   0.12856
  44        2S          0.00018   0.00009   0.00113  -0.00369   0.01044
  45        3PX        -0.00003  -0.00005   0.00040  -0.00178  -0.01699
  46        3PY         0.00003   0.00000   0.00029   0.00023  -0.00906
  47        3PZ         0.00000   0.00000   0.00000   0.00000   0.00000
  48 5   H  1S          0.00005  -0.00013   0.00013   0.00960   0.12317
  49        2S         -0.00006   0.00021   0.00125   0.00252   0.01035
  50        3PX         0.00006  -0.00005  -0.00007  -0.00130   0.00018
  51        3PY        -0.00002   0.00005  -0.00023   0.00050   0.01104
  52        3PZ         0.00000  -0.00002   0.00035  -0.00182  -0.01429
  53 6   H  1S          0.00005  -0.00013   0.00013   0.00960   0.12317
  54        2S         -0.00006   0.00021   0.00125   0.00252   0.01035
  55        3PX         0.00006  -0.00005  -0.00007  -0.00130   0.00018
  56        3PY        -0.00002   0.00005  -0.00023   0.00050   0.01104
  57        3PZ         0.00000   0.00002  -0.00035   0.00182   0.01429
  58 7   H  1S         -0.00031   0.00021  -0.00014   0.03628   0.09999
  59        2S         -0.00008   0.00128   0.00011   0.00259   0.00709
  60        3PX         0.00011   0.00009   0.00005  -0.00224   0.00049
  61        3PY         0.00012   0.00015  -0.00005  -0.00557  -0.00843
  62        3PZ         0.00001   0.00024  -0.00001  -0.00636  -0.01120
  63 8   H  1S         -0.00031   0.00021  -0.00014   0.03628   0.09999
  64        2S         -0.00008   0.00128   0.00011   0.00259   0.00709
  65        3PX         0.00011   0.00009   0.00005  -0.00224   0.00049
  66        3PY         0.00012   0.00015  -0.00005  -0.00557  -0.00843
  67        3PZ        -0.00001  -0.00024   0.00001   0.00636   0.01120
  68 9   H  1S          0.00008   0.00026   0.00021   0.16999  -0.10436
  69        2S          0.00004   0.00011   0.00014   0.00663  -0.00742
  70        3PX        -0.00042   0.00024   0.00006   0.02988  -0.01284
  71        3PY         0.00050   0.00009  -0.00003  -0.02137   0.01185
  72        3PZ         0.00000   0.00000   0.00000   0.00000   0.00000
                           6         7         8         9        10
                        (A')--O   (A')--O   (A")--O   (A')--O   (A')--O
     EIGENVALUES --    -0.82733  -0.69086  -0.63649  -0.56497  -0.52723
   1 1   C  1S          0.10614   0.01131   0.00000  -0.00748   0.00449
   2        2S         -0.22232  -0.01719   0.00000   0.01132  -0.01374
   3        3S         -0.12507  -0.04133   0.00000   0.05749  -0.00978
   4        4PX        -0.09049  -0.10893   0.00000   0.05859   0.34513
   5        4PY         0.08733  -0.05857   0.00000  -0.26220   0.19072
   6        4PZ         0.00000   0.00000   0.20287   0.00000   0.00000
   7        5PX        -0.04718  -0.03979   0.00000   0.03184   0.15079
   8        5PY         0.04195  -0.03196   0.00000  -0.10342   0.09485
   9        5PZ         0.00000   0.00000   0.08534   0.00000   0.00000
  10        6D 0       -0.00669   0.00224   0.00000   0.01601  -0.01234
  11        6D+1        0.00000   0.00000  -0.01073   0.00000   0.00000
  12        6D-1        0.00000   0.00000   0.00040   0.00000   0.00000
  13        6D+2        0.00017   0.00355   0.00000   0.00059   0.01286
  14        6D-2       -0.01393  -0.00543   0.00000   0.00837   0.02163
  15 2   C  1S         -0.11848   0.00948   0.00000   0.00477   0.01392
  16        2S          0.26749  -0.01529   0.00000  -0.00690  -0.03256
  17        3S          0.14298  -0.01175   0.00000  -0.04889  -0.04283
  18        4PX        -0.06001  -0.09738   0.00000  -0.29656  -0.17011
  19        4PY         0.10108  -0.24251   0.00000   0.01334   0.00222
  20        4PZ         0.00000   0.00000   0.33461   0.00000   0.00000
  21        5PX        -0.03202  -0.02043   0.00000  -0.14184  -0.07493
  22        5PY         0.06040  -0.10643   0.00000   0.04408   0.01256
  23        5PZ         0.00000   0.00000   0.13970   0.00000   0.00000
  24        6D 0        0.00483  -0.01828   0.00000  -0.00833  -0.00978
  25        6D+1        0.00000   0.00000  -0.00500   0.00000   0.00000
  26        6D-1        0.00000   0.00000   0.00511   0.00000   0.00000
  27        6D+2       -0.00187  -0.00900   0.00000   0.01466   0.02215
  28        6D-2        0.01381   0.02573   0.00000   0.01849   0.02921
  29 3   O  1S          0.03703  -0.02862   0.00000   0.04233  -0.01275
  30        2S         -0.08792   0.06488   0.00000  -0.09587   0.02581
  31        3S         -0.09154   0.14401   0.00000  -0.18871   0.06786
  32        4PX         0.15914   0.37443   0.00000   0.13895   0.20503
  33        4PY         0.07307  -0.18268   0.00000   0.39481   0.05519
  34        4PZ         0.00000   0.00000   0.26910   0.00000   0.00000
  35        5PX         0.08121   0.18326   0.00000   0.10254   0.12676
  36        5PY         0.06028  -0.09141   0.00000   0.27536   0.04133
  37        5PZ         0.00000   0.00000   0.18075   0.00000   0.00000
  38        6D 0       -0.00393   0.00260   0.00000  -0.00985  -0.00063
  39        6D+1        0.00000   0.00000   0.00644   0.00000   0.00000
  40        6D-1        0.00000   0.00000   0.01110   0.00000   0.00000
  41        6D+2       -0.00174   0.00911   0.00000  -0.01153  -0.00213
  42        6D-2        0.01271   0.01699   0.00000   0.00953   0.01090
  43 4   H  1S         -0.14355  -0.10519   0.00000  -0.06265   0.36920
  44        2S         -0.02822  -0.02597   0.00000  -0.03076   0.17225
  45        3PX         0.01366   0.00665   0.00000   0.00600  -0.01979
  46        3PY         0.00999   0.00348   0.00000  -0.00345  -0.00910
  47        3PZ         0.00000   0.00000   0.00569   0.00000   0.00000
  48 5   H  1S         -0.15117   0.01614   0.13364   0.14141  -0.12303
  49        2S         -0.02752   0.00485   0.03873   0.04634  -0.04832
  50        3PX        -0.00286  -0.00367   0.00086   0.00174   0.00947
  51        3PY        -0.00960  -0.00073   0.00840   0.00036  -0.00052
  52        3PZ         0.01542  -0.00116  -0.00643  -0.01112   0.00864
  53 6   H  1S         -0.15117   0.01614  -0.13364   0.14141  -0.12303
  54        2S         -0.02752   0.00485  -0.03873   0.04634  -0.04832
  55        3PX        -0.00286  -0.00367  -0.00086   0.00174   0.00947
  56        3PY        -0.00960  -0.00073  -0.00840   0.00036  -0.00052
  57        3PZ        -0.01542   0.00116  -0.00643   0.01112  -0.00864
  58 7   H  1S          0.17535  -0.12022   0.21282  -0.01299  -0.03098
  59        2S          0.02879  -0.02931   0.07027  -0.00664  -0.01402
  60        3PX        -0.00142  -0.00230  -0.00004  -0.00484  -0.00426
  61        3PY        -0.01028   0.00147  -0.01225   0.00004   0.00078
  62        3PZ        -0.01680   0.01100  -0.00956   0.00086   0.00128
  63 8   H  1S          0.17535  -0.12022  -0.21282  -0.01299  -0.03098
  64        2S          0.02879  -0.02931  -0.07027  -0.00664  -0.01402
  65        3PX        -0.00142  -0.00230   0.00004  -0.00484  -0.00426
  66        3PY        -0.01028   0.00147   0.01225   0.00004   0.00078
  67        3PZ         0.01680  -0.01100  -0.00956  -0.00086  -0.00128
  68 9   H  1S         -0.10492  -0.30745   0.00000   0.06547  -0.11030
  69        2S         -0.02554  -0.07090   0.00000  -0.01444  -0.04817
  70        3PX        -0.00917  -0.02990   0.00000   0.01666  -0.00362
  71        3PY         0.01329   0.02300   0.00000   0.01016   0.01261
  72        3PZ         0.00000   0.00000   0.01222   0.00000   0.00000
                          11        12        13        14        15
                        (A")--O   (A')--O   (A")--O   (A')--V   (A')--V
     EIGENVALUES --    -0.51829  -0.48259  -0.43427   0.18126   0.21446
   1 1   C  1S          0.00000   0.01972   0.00000  -0.04895  -0.08854
   2        2S          0.00000  -0.05004   0.00000   0.02754   0.04675
   3        3S          0.00000  -0.09414   0.00000   0.83861   1.75944
   4        4PX         0.00000   0.19357   0.00000   0.08114   0.07672
   5        4PY         0.00000  -0.24936   0.00000  -0.02888  -0.05146
   6        4PZ         0.35994   0.00000   0.10397   0.00000   0.00000
   7        5PX         0.00000   0.07708   0.00000   0.29225   0.15997
   8        5PY         0.00000  -0.13482   0.00000  -0.11457  -0.28343
   9        5PZ         0.19385   0.00000   0.01596   0.00000   0.00000
  10        6D 0        0.00000   0.01370   0.00000   0.00072  -0.00249
  11        6D+1        0.00150   0.00000   0.00750   0.00000   0.00000
  12        6D-1       -0.02688   0.00000  -0.01833   0.00000   0.00000
  13        6D+2        0.00000  -0.01251   0.00000  -0.00977   0.01289
  14        6D-2        0.00000   0.01515   0.00000   0.00022   0.01152
  15 2   C  1S          0.00000   0.01329   0.00000  -0.06586  -0.00910
  16        2S          0.00000  -0.04516   0.00000   0.00649   0.04305
  17        3S          0.00000  -0.01209   0.00000   1.40245  -0.01919
  18        4PX         0.00000  -0.12001   0.00000   0.03609  -0.08399
  19        4PY         0.00000   0.32834   0.00000   0.16139   0.00371
  20        4PZ        -0.10657   0.00000  -0.25968   0.00000   0.00000
  21        5PX         0.00000  -0.06045   0.00000  -0.03627  -0.10651
  22        5PY         0.00000   0.12427   0.00000   0.41579   0.19965
  23        5PZ        -0.06418   0.00000  -0.08228   0.00000   0.00000
  24        6D 0        0.00000   0.02318   0.00000   0.00193   0.00462
  25        6D+1        0.02531   0.00000  -0.01852   0.00000   0.00000
  26        6D-1       -0.01161   0.00000  -0.03968   0.00000   0.00000
  27        6D+2        0.00000  -0.02703   0.00000   0.00302  -0.01049
  28        6D-2        0.00000   0.01640   0.00000   0.00781  -0.01399
  29 3   O  1S          0.00000  -0.03455   0.00000  -0.04360   0.04125
  30        2S          0.00000   0.07416   0.00000   0.06298  -0.04392
  31        3S          0.00000   0.17994   0.00000   0.42106  -0.47096
  32        4PX         0.00000   0.02487   0.00000  -0.09754   0.07947
  33        4PY         0.00000  -0.32405   0.00000   0.05316  -0.14923
  34        4PZ        -0.31277   0.00000   0.48284   0.00000   0.00000
  35        5PX         0.00000  -0.00215   0.00000  -0.24837   0.26868
  36        5PY         0.00000  -0.24159   0.00000   0.04648  -0.23863
  37        5PZ        -0.23433   0.00000   0.39397   0.00000   0.00000
  38        6D 0        0.00000   0.00882   0.00000  -0.00387   0.00339
  39        6D+1       -0.00235   0.00000  -0.00267   0.00000   0.00000
  40        6D-1       -0.01042   0.00000   0.00931   0.00000   0.00000
  41        6D+2        0.00000   0.00112   0.00000  -0.00325   0.00337
  42        6D-2        0.00000   0.00423   0.00000  -0.00346   0.01272
  43 4   H  1S          0.00000   0.01279   0.00000  -0.03331   0.05436
  44        2S          0.00000   0.02180   0.00000  -0.61321  -0.67542
  45        3PX         0.00000   0.00342   0.00000   0.00510   0.01338
  46        3PY         0.00000  -0.00912   0.00000   0.00309   0.00522
  47        3PZ         0.01092   0.00000   0.00463   0.00000   0.00000
  48 5   H  1S          0.27155   0.10808   0.10087   0.00939  -0.04103
  49        2S          0.10544   0.06948   0.09393  -0.29796  -0.82838
  50        3PX         0.00176   0.00482  -0.00211   0.00329  -0.00430
  51        3PY         0.01421  -0.00030   0.00633  -0.00439  -0.00500
  52        3PZ        -0.00813  -0.00785  -0.00241   0.00230   0.00933
  53 6   H  1S         -0.27155   0.10808  -0.10087   0.00939  -0.04103
  54        2S         -0.10544   0.06948  -0.09393  -0.29796  -0.82838
  55        3PX        -0.00176   0.00482   0.00211   0.00329  -0.00430
  56        3PY        -0.01421  -0.00030  -0.00633  -0.00439  -0.00500
  57        3PZ        -0.00813   0.00785  -0.00241  -0.00230  -0.00933
  58 7   H  1S         -0.07531   0.16450  -0.24807  -0.00416   0.00351
  59        2S         -0.04204   0.09314  -0.15075  -0.79630  -0.13516
  60        3PX        -0.00117  -0.00358  -0.00006   0.00700  -0.01194
  61        3PY         0.00384   0.00187   0.01083   0.00876   0.00165
  62        3PZ         0.00203  -0.01197   0.00579   0.00863   0.00069
  63 8   H  1S          0.07531   0.16450   0.24807  -0.00416   0.00351
  64        2S          0.04204   0.09314   0.15075  -0.79630  -0.13516
  65        3PX         0.00117  -0.00358   0.00006   0.00700  -0.01194
  66        3PY        -0.00384   0.00187  -0.01083   0.00876   0.00165
  67        3PZ         0.00203   0.01197   0.00579  -0.00863  -0.00069
  68 9   H  1S          0.00000  -0.17055   0.00000  -0.05024   0.02768
  69        2S          0.00000  -0.04753   0.00000  -0.81731   0.95032
  70        3PX         0.00000  -0.01724   0.00000  -0.00903   0.01328
  71        3PY         0.00000   0.00148   0.00000   0.00929  -0.02056
  72        3PZ        -0.01543   0.00000   0.02361   0.00000   0.00000
                          16        17        18        19        20
                        (A")--V   (A')--V   (A')--V   (A")--V   (A')--V
     EIGENVALUES --     0.24561   0.24750   0.26782   0.29303   0.37924
   1 1   C  1S          0.00000   0.06966   0.00828   0.00000   0.02569
   2        2S          0.00000  -0.03671  -0.00225   0.00000  -0.02100
   3        3S          0.00000  -1.33883  -0.16167   0.00000  -0.77665
   4        4PX         0.00000   0.01049  -0.19953   0.00000   0.11702
   5        4PY         0.00000   0.06452  -0.21974   0.00000  -0.09414
   6        4PZ        -0.18618   0.00000   0.00000  -0.23516   0.00000
   7        5PX         0.00000   0.06125  -0.98042   0.00000   0.62696
   8        5PY         0.00000   0.10364  -1.12827   0.00000  -0.96540
   9        5PZ        -0.63466   0.00000   0.00000  -1.38643   0.00000
  10        6D 0        0.00000  -0.01322   0.01393   0.00000   0.00549
  11        6D+1        0.00993   0.00000   0.00000  -0.00524   0.00000
  12        6D-1        0.00849   0.00000   0.00000   0.01823   0.00000
  13        6D+2        0.00000   0.00984  -0.00676   0.00000  -0.02240
  14        6D-2        0.00000  -0.00160  -0.01538   0.00000  -0.00437
  15 2   C  1S          0.00000  -0.08934  -0.02053   0.00000   0.01585
  16        2S          0.00000   0.08557   0.03081   0.00000  -0.02468
  17        3S          0.00000   1.64023   0.35885   0.00000   0.18375
  18        4PX         0.00000  -0.00189  -0.01185   0.00000   0.27231
  19        4PY         0.00000   0.08515   0.00193   0.00000  -0.01066
  20        4PZ        -0.26720   0.00000   0.00000   0.19969   0.00000
  21        5PX         0.00000   0.17655   0.19851   0.00000   1.96522
  22        5PY         0.00000   0.43318   0.38400   0.00000   0.09760
  23        5PZ        -1.02563   0.00000   0.00000   1.11118   0.00000
  24        6D 0        0.00000   0.01336   0.00257   0.00000  -0.00882
  25        6D+1       -0.00899   0.00000   0.00000  -0.00266   0.00000
  26        6D-1       -0.01558   0.00000   0.00000   0.02384   0.00000
  27        6D+2        0.00000  -0.00708  -0.01770   0.00000   0.00321
  28        6D-2        0.00000  -0.00585  -0.00746   0.00000   0.00760
  29 3   O  1S          0.00000   0.04014   0.00041   0.00000  -0.05134
  30        2S          0.00000  -0.05124  -0.02520   0.00000   0.04298
  31        3S          0.00000  -0.43828   0.13126   0.00000   0.74792
  32        4PX         0.00000   0.04001  -0.04319   0.00000   0.24351
  33        4PY         0.00000  -0.08865  -0.00574   0.00000   0.10982
  34        4PZ         0.01531   0.00000   0.00000  -0.07108   0.00000
  35        5PX         0.00000   0.14099  -0.03112   0.00000   0.63524
  36        5PY         0.00000  -0.19181   0.02644   0.00000   0.32826
  37        5PZ         0.11386   0.00000   0.00000  -0.17024   0.00000
  38        6D 0        0.00000   0.00077  -0.00641   0.00000  -0.00472
  39        6D+1       -0.00619   0.00000   0.00000   0.00692   0.00000
  40        6D-1       -0.00111   0.00000   0.00000  -0.00175   0.00000
  41        6D+2        0.00000   0.00213   0.00359   0.00000   0.00626
  42        6D-2        0.00000   0.00918  -0.00382   0.00000   0.00411
  43 4   H  1S          0.00000   0.03056   0.03935   0.00000  -0.13958
  44        2S          0.00000   0.31339   2.18603   0.00000  -0.15168
  45        3PX         0.00000   0.00172  -0.02740   0.00000  -0.01673
  46        3PY         0.00000  -0.00395  -0.01101   0.00000   0.01320
  47        3PZ         0.00427   0.00000   0.00000  -0.00309   0.00000
  48 5   H  1S          0.02473  -0.01418  -0.02096   0.04320   0.01342
  49        2S          1.01175   0.71759  -0.94912   1.54049  -0.26414
  50        3PX         0.00278  -0.00076   0.00411  -0.00310   0.01384
  51        3PY         0.00978   0.00527  -0.00735   0.01319  -0.00759
  52        3PZ        -0.01189  -0.01196   0.01048  -0.01360   0.00137
  53 6   H  1S         -0.02473  -0.01418  -0.02096  -0.04320   0.01342
  54        2S         -1.01175   0.71759  -0.94912  -1.54049  -0.26414
  55        3PX        -0.00278  -0.00076   0.00411   0.00310   0.01384
  56        3PY        -0.00978   0.00527  -0.00735  -0.01319  -0.00759
  57        3PZ        -0.01189   0.01196  -0.01048  -0.01360  -0.00137
  58 7   H  1S          0.02439  -0.01886  -0.01029   0.02232  -0.03850
  59        2S          1.42615  -1.13817  -0.29850  -1.17173   0.07031
  60        3PX        -0.00542  -0.00469  -0.00245  -0.00285   0.00658
  61        3PY        -0.01417   0.00565   0.00372   0.01293   0.00416
  62        3PZ        -0.01530   0.01553   0.00239   0.01053  -0.00548
  63 8   H  1S         -0.02439  -0.01886  -0.01029  -0.02232  -0.03850
  64        2S         -1.42615  -1.13817  -0.29850   1.17173   0.07031
  65        3PX         0.00542  -0.00469  -0.00245   0.00285   0.00658
  66        3PY         0.01417   0.00565   0.00372  -0.01293   0.00416
  67        3PZ        -0.01530  -0.01553  -0.00239   0.01053   0.00548
  68 9   H  1S          0.00000   0.04561   0.02968   0.00000   0.02723
  69        2S          0.00000   0.80151  -0.04882   0.00000   0.80167
  70        3PX         0.00000   0.00903  -0.00975   0.00000  -0.00495
  71        3PY         0.00000  -0.01651   0.00252   0.00000  -0.00408
  72        3PZ         0.00429   0.00000   0.00000  -0.00793   0.00000
                          21        22        23        24        25
                        (A')--V   (A")--V   (A')--V   (A')--V   (A')--V
     EIGENVALUES --     0.39774   0.60497   0.61525   0.66110   0.74978
   1 1   C  1S          0.05287   0.00000  -0.00719  -0.01128   0.00524
   2        2S          0.04129   0.00000   0.10802   0.15190   0.03539
   3        3S         -1.64336   0.00000   0.59948  -0.03956  -0.44523
   4        4PX         0.09140   0.00000  -0.20019  -0.29960   0.01656
   5        4PY        -0.13300   0.00000   0.37302   0.07394   0.07136
   6        4PZ         0.00000  -0.18214   0.00000   0.00000   0.00000
   7        5PX         1.80122   0.00000   0.00951   0.94440  -0.12304
   8        5PY        -1.06932   0.00000  -0.87209   0.36164  -0.42960
   9        5PZ         0.00000   0.76229   0.00000   0.00000   0.00000
  10        6D 0        0.00853   0.00000  -0.10223   0.12655   0.00457
  11        6D+1        0.00000  -0.00531   0.00000   0.00000   0.00000
  12        6D-1        0.00000   0.16487   0.00000   0.00000   0.00000
  13        6D+2        0.00893   0.00000   0.04630  -0.07391   0.06749
  14        6D-2       -0.00374   0.00000  -0.03810  -0.09516   0.07161
  15 2   C  1S         -0.08673   0.00000   0.01017  -0.01080  -0.02651
  16        2S          0.06808   0.00000   0.08433   0.09188   0.40549
  17        3S          2.11622   0.00000   0.06532   0.32047  -0.18154
  18        4PX         0.04626   0.00000   0.28644  -0.01301  -0.82981
  19        4PY        -0.25947   0.00000  -0.33090  -0.00526  -0.44199
  20        4PZ         0.00000   0.04228   0.00000   0.00000   0.00000
  21        5PX         0.60143   0.00000  -0.41735  -0.43890   1.51331
  22        5PY        -2.04745   0.00000   1.18677  -0.18847   0.73082
  23        5PZ         0.00000   0.03901   0.00000   0.00000   0.00000
  24        6D 0        0.00496   0.00000  -0.06827  -0.07830   0.04023
  25        6D+1        0.00000   0.03242   0.00000   0.00000   0.00000
  26        6D-1        0.00000  -0.12620   0.00000   0.00000   0.00000
  27        6D+2       -0.00312   0.00000  -0.00358   0.08062  -0.06429
  28        6D-2       -0.01638   0.00000  -0.07110  -0.06383  -0.11910
  29 3   O  1S          0.03942   0.00000  -0.00894  -0.01101   0.00421
  30        2S         -0.01901   0.00000   0.00132   0.10081  -0.17892
  31        3S         -0.64938   0.00000   0.19569  -0.23089   0.79297
  32        4PX        -0.14036   0.00000  -0.05360   0.00988  -0.25978
  33        4PY        -0.03270   0.00000  -0.01134  -0.08809  -0.10113
  34        4PZ         0.00000  -0.07497   0.00000   0.00000   0.00000
  35        5PX        -0.53345   0.00000   0.22945  -0.19145   0.05993
  36        5PY        -0.02118   0.00000  -0.18174  -0.06094   0.15112
  37        5PZ         0.00000  -0.04876   0.00000   0.00000   0.00000
  38        6D 0        0.00353   0.00000  -0.00475   0.01739  -0.04192
  39        6D+1        0.00000   0.01100   0.00000   0.00000   0.00000
  40        6D-1        0.00000  -0.00410   0.00000   0.00000   0.00000
  41        6D+2        0.01110   0.00000   0.00189  -0.01695   0.03549
  42        6D-2       -0.00124   0.00000  -0.00144   0.03498   0.06358
  43 4   H  1S         -0.05076   0.00000   0.12735  -0.75274   0.11282
  44        2S         -0.31683   0.00000  -0.04409   0.22280  -0.16647
  45        3PX         0.01401   0.00000   0.00045  -0.05239  -0.02003
  46        3PY        -0.01671   0.00000   0.01011  -0.01980   0.06297
  47        3PZ         0.00000   0.04049   0.00000   0.00000   0.00000
  48 5   H  1S         -0.07708  -0.60494  -0.34810   0.23306   0.01714
  49        2S         -0.30525   0.24530   0.07159  -0.12387   0.05055
  50        3PX        -0.00694  -0.00566   0.00312   0.02631   0.01220
  51        3PY         0.00463   0.04653  -0.01595   0.02340  -0.01060
  52        3PZ         0.00080  -0.01678  -0.01535   0.04511  -0.00171
  53 6   H  1S         -0.07708   0.60494  -0.34810   0.23306   0.01714
  54        2S         -0.30525  -0.24530   0.07159  -0.12387   0.05055
  55        3PX        -0.00694   0.00566   0.00312   0.02631   0.01220
  56        3PY         0.00463  -0.04653  -0.01595   0.02340  -0.01060
  57        3PZ        -0.00080  -0.01678   0.01535  -0.04511   0.00171
  58 7   H  1S          0.11692  -0.36408  -0.23225  -0.22711  -0.13966
  59        2S          0.53002   0.19774  -0.03858   0.13883  -0.07474
  60        3PX        -0.00792   0.03373  -0.00622  -0.00883  -0.05406
  61        3PY        -0.01019  -0.06781   0.03121  -0.01815   0.01519
  62        3PZ         0.00839  -0.02086  -0.00522  -0.03699   0.01377
  63 8   H  1S          0.11692   0.36408  -0.23225  -0.22711  -0.13966
  64        2S          0.53002  -0.19774  -0.03858   0.13883  -0.07474
  65        3PX        -0.00792  -0.03373  -0.00622  -0.00883  -0.05406
  66        3PY        -0.01019   0.06781   0.03121  -0.01815   0.01519
  67        3PZ        -0.00839  -0.02086   0.00522   0.03699  -0.01377
  68 9   H  1S         -0.01786   0.00000   0.12980  -0.41772  -0.20775
  69        2S         -0.15758   0.00000  -0.24158   0.16467   0.39322
  70        3PX        -0.01492   0.00000   0.04703   0.05401  -0.07211
  71        3PY        -0.01332   0.00000   0.01103  -0.00212  -0.09872
  72        3PZ         0.00000  -0.02056   0.00000   0.00000   0.00000
                          26        27        28        29        30
                        (A")--V   (A')--V   (A')--V   (A")--V   (A')--V
     EIGENVALUES --     0.75034   0.80492   0.85847   0.86528   0.88582
   1 1   C  1S          0.00000   0.01062  -0.02189   0.00000   0.01978
   2        2S          0.00000  -0.31856   0.12362   0.00000  -0.19080
   3        3S          0.00000   1.52727  -0.26623   0.00000   0.76286
   4        4PX         0.00000   0.29549  -0.58328   0.00000  -0.42336
   5        4PY         0.00000  -0.21440   0.24018   0.00000  -0.65513
   6        4PZ        -0.34843   0.00000   0.00000   0.14059   0.00000
   7        5PX         0.00000  -0.89339   1.24628   0.00000   0.62228
   8        5PY         0.00000   1.18663  -0.23831   0.00000   1.72173
   9        5PZ         1.59063   0.00000   0.00000  -0.38660   0.00000
  10        6D 0        0.00000   0.00462   0.08445   0.00000  -0.20478
  11        6D+1        0.11212   0.00000   0.00000   0.07540   0.00000
  12        6D-1        0.00666   0.00000   0.00000   0.05446   0.00000
  13        6D+2        0.00000   0.05559   0.05858   0.00000   0.17943
  14        6D-2        0.00000  -0.17871   0.14857   0.00000   0.08057
  15 2   C  1S          0.00000  -0.01679   0.05991   0.00000   0.00607
  16        2S          0.00000   0.19144  -0.61655   0.00000   0.09379
  17        3S          0.00000  -0.92836   1.32615   0.00000  -0.55765
  18        4PX         0.00000   0.17173  -0.21569   0.00000   0.22672
  19        4PY         0.00000  -0.52356   0.00642   0.00000  -0.24411
  20        4PZ         0.18989   0.00000   0.00000  -0.87294   0.00000
  21        5PX         0.00000  -1.24503   0.59843   0.00000  -0.55729
  22        5PY         0.00000   1.44550  -0.22260   0.00000   0.69850
  23        5PZ        -1.48704   0.00000   0.00000   1.99046   0.00000
  24        6D 0        0.00000   0.13562   0.04240   0.00000   0.04023
  25        6D+1        0.00154   0.00000   0.00000   0.07879   0.00000
  26        6D-1        0.18682   0.00000   0.00000   0.29381   0.00000
  27        6D+2        0.00000  -0.15164  -0.13392   0.00000  -0.11017
  28        6D-2        0.00000   0.09381  -0.12502   0.00000   0.04815
  29 3   O  1S          0.00000   0.02360  -0.01392   0.00000  -0.02618
  30        2S          0.00000  -0.12218   0.04591   0.00000   0.11836
  31        3S          0.00000   0.19653   0.17334   0.00000   0.03923
  32        4PX         0.00000   0.04128   0.18851   0.00000  -0.07908
  33        4PY         0.00000  -0.27478  -0.11773   0.00000   0.05599
  34        4PZ         0.23154   0.00000   0.00000  -0.01832   0.00000
[...]
  47        3PZ         0.00000   0.00000   0.00000   0.00000   0.00000
  48 5   H  1S          0.00001   0.00001   0.00000   0.00000   0.00000
  49        2S          0.00089   0.00228   0.00000   0.00000   0.00000
  50        3PX         0.00000   0.00003   0.00000   0.00000   0.00000
  51        3PY         0.00000   0.00001   0.00000   0.00000   0.00000
  52        3PZ         0.00000   0.00000   0.00000   0.00000   0.00000
  53 6   H  1S          0.00001   0.00001   0.00000   0.00000   0.00000
  54        2S          0.00089   0.00228   0.00000   0.00000   0.00000
  55        3PX         0.00000   0.00003   0.00000   0.00000   0.00000
  56        3PY         0.00000   0.00001   0.00000   0.00000   0.00000
  57        3PZ         0.00000   0.00000   0.00000   0.00000   0.00000
  58 7   H  1S         -0.00420  -0.00527   0.00000   0.00003   0.00001
  59        2S         -0.00828  -0.00939  -0.00001   0.00002  -0.00001
  60        3PX         0.00009  -0.00003   0.00000   0.00000   0.00000
  61        3PY         0.00017  -0.00014   0.00000   0.00000   0.00000
  62        3PZ        -0.00010   0.00000   0.00000   0.00000   0.00000
  63 8   H  1S         -0.00420  -0.00527   0.00000   0.00003   0.00001
  64        2S         -0.00828  -0.00939  -0.00001   0.00002  -0.00001
  65        3PX         0.00009  -0.00003   0.00000   0.00000   0.00000
  66        3PY         0.00017  -0.00014   0.00000   0.00000   0.00000
  67        3PZ        -0.00010   0.00000   0.00000   0.00000   0.00000
  68 9   H  1S          0.06082   0.00000   0.00076   0.00000   0.00000
  69        2S          0.00522   0.00000   0.00001   0.00000   0.00000
  70        3PX         0.00555   0.00000   0.00007   0.00000   0.00000
  71        3PY         0.00056   0.00000   0.00000   0.00000   0.00000
  72        3PZ         0.00000   0.01168   0.00000  -0.00002   0.00020
                          41        42        43        44        45
  41        6D+2        0.00047
  42        6D-2        0.00000   0.00151
  43 4   H  1S          0.00000   0.00000   0.37726
  44        2S          0.00000   0.00000   0.10123   0.06537
  45        3PX         0.00000   0.00000   0.00000   0.00000   0.00192
  46        3PY         0.00000   0.00000   0.00000   0.00000   0.00000
  47        3PZ         0.00000   0.00000   0.00000   0.00000   0.00000
  48 5   H  1S          0.00000   0.00000  -0.00192  -0.00811   0.00003
  49        2S          0.00000   0.00000  -0.00675  -0.00745  -0.00016
  50        3PX         0.00000   0.00000   0.00035   0.00031   0.00001
  51        3PY         0.00000   0.00000   0.00026   0.00006   0.00003
  52        3PZ         0.00000   0.00000   0.00001  -0.00016   0.00001
  53 6   H  1S          0.00000   0.00000  -0.00192  -0.00811   0.00003
  54        2S          0.00000   0.00000  -0.00675  -0.00745  -0.00016
  55        3PX         0.00000   0.00000   0.00035   0.00031   0.00001
  56        3PY         0.00000   0.00000   0.00026   0.00006   0.00003
  57        3PZ         0.00000   0.00000   0.00001  -0.00016   0.00001
  58 7   H  1S          0.00000   0.00003  -0.00007  -0.00035  -0.00001
  59        2S          0.00000   0.00000  -0.00057  -0.00009  -0.00007
  60        3PX         0.00000   0.00000  -0.00001  -0.00006   0.00000
  61        3PY         0.00000   0.00000   0.00000  -0.00002   0.00000
  62        3PZ         0.00000   0.00000   0.00000   0.00000   0.00000
  63 8   H  1S          0.00000   0.00003  -0.00007  -0.00035  -0.00001
  64        2S          0.00000   0.00000  -0.00057  -0.00009  -0.00007
  65        3PX         0.00000   0.00000  -0.00001  -0.00006   0.00000
  66        3PY         0.00000   0.00000   0.00000  -0.00002   0.00000
  67        3PZ         0.00000   0.00000   0.00000   0.00000   0.00000
  68 9   H  1S         -0.00024   0.00313   0.00000  -0.00007   0.00000
  69        2S          0.00000   0.00010  -0.00003  -0.00034   0.00000
  70        3PX         0.00015   0.00018   0.00000   0.00000   0.00000
  71        3PY        -0.00002   0.00009   0.00000   0.00000   0.00000
  72        3PZ         0.00000   0.00000   0.00000   0.00000   0.00000
                          46        47        48        49        50
  46        3PY         0.00074
  47        3PZ         0.00000   0.00035
  48 5   H  1S          0.00029   0.00031   0.37393
  49        2S          0.00014   0.00027   0.09427   0.06329
  50        3PX         0.00002   0.00000   0.00000   0.00000   0.00030
  51        3PY         0.00002   0.00002   0.00000   0.00000   0.00000
  52        3PZ         0.00003   0.00000   0.00000   0.00000   0.00000
  53 6   H  1S          0.00029   0.00031  -0.00191  -0.00801   0.00000
  54        2S          0.00014   0.00027  -0.00801  -0.01124   0.00000
  55        3PX         0.00002   0.00000   0.00000   0.00000   0.00000
  56        3PY         0.00002   0.00002   0.00000   0.00000   0.00000
  57        3PZ         0.00003   0.00000   0.00065   0.00022   0.00000
  58 7   H  1S          0.00000   0.00000  -0.00012  -0.00226   0.00000
  59        2S         -0.00003  -0.00004  -0.00156  -0.00498  -0.00004
  60        3PX         0.00000   0.00000   0.00000  -0.00002   0.00000
  61        3PY         0.00000   0.00000  -0.00001  -0.00014   0.00000
  62        3PZ         0.00000   0.00000   0.00000   0.00000   0.00000
  63 8   H  1S          0.00000   0.00000   0.00001   0.00156   0.00000
  64        2S         -0.00003  -0.00004   0.00121   0.00551   0.00000
  65        3PX         0.00000   0.00000   0.00000   0.00000   0.00000
  66        3PY         0.00000   0.00000   0.00000   0.00002   0.00000
  67        3PZ         0.00000   0.00000   0.00000   0.00002   0.00000
  68 9   H  1S          0.00000   0.00000   0.00000  -0.00005   0.00000
  69        2S          0.00000   0.00000   0.00001  -0.00018   0.00001
  70        3PX         0.00000   0.00000   0.00000   0.00000   0.00000
  71        3PY         0.00000   0.00000   0.00000   0.00000   0.00000
  72        3PZ         0.00000   0.00000   0.00000   0.00001   0.00000
                          51        52        53        54        55
  51        3PY         0.00106
  52        3PZ         0.00000   0.00164
  53 6   H  1S          0.00000   0.00065   0.37393
  54        2S          0.00000   0.00022   0.09427   0.06329
  55        3PX         0.00000   0.00000   0.00000   0.00000   0.00030
  56        3PY         0.00000   0.00000   0.00000   0.00000   0.00000
  57        3PZ         0.00000   0.00014   0.00000   0.00000   0.00000
  58 7   H  1S         -0.00001   0.00000   0.00001   0.00156   0.00000
  59        2S         -0.00014   0.00000   0.00121   0.00551   0.00000
  60        3PX         0.00000   0.00000   0.00000   0.00000   0.00000
  61        3PY         0.00000   0.00000   0.00000   0.00002   0.00000
  62        3PZ         0.00000   0.00000   0.00000   0.00002   0.00000
  63 8   H  1S          0.00000   0.00000  -0.00012  -0.00226   0.00000
  64        2S          0.00003   0.00002  -0.00156  -0.00498  -0.00004
  65        3PX         0.00000   0.00000   0.00000  -0.00002   0.00000
  66        3PY         0.00000   0.00000  -0.00001  -0.00014   0.00000
  67        3PZ         0.00000   0.00000   0.00000   0.00000   0.00000
  68 9   H  1S          0.00000   0.00000   0.00000  -0.00005   0.00000
  69        2S          0.00000   0.00000   0.00001  -0.00018   0.00001
  70        3PX         0.00000   0.00000   0.00000   0.00000   0.00000
  71        3PY         0.00000   0.00000   0.00000   0.00000   0.00000
  72        3PZ         0.00000   0.00000   0.00000   0.00001   0.00000
                          56        57        58        59        60
  56        3PY         0.00106
  57        3PZ         0.00000   0.00164
  58 7   H  1S          0.00000   0.00000   0.39442
  59        2S          0.00003   0.00002   0.11058   0.08018
  60        3PX         0.00000   0.00000   0.00000   0.00000   0.00014
  61        3PY         0.00000   0.00000   0.00000   0.00000   0.00000
  62        3PZ         0.00000   0.00000   0.00000   0.00000   0.00000
  63 8   H  1S         -0.00001   0.00000  -0.00318  -0.01365   0.00000
  64        2S         -0.00014   0.00000  -0.01365  -0.01876   0.00000
  65        3PX         0.00000   0.00000   0.00000   0.00000   0.00000
  66        3PY         0.00000   0.00000   0.00000   0.00000   0.00000
  67        3PZ         0.00000   0.00000   0.00061   0.00012   0.00000
  68 9   H  1S          0.00000   0.00000  -0.00020  -0.00186  -0.00002
  69        2S          0.00000   0.00000  -0.00053  -0.00143  -0.00009
  70        3PX         0.00000   0.00000  -0.00002  -0.00015   0.00000
  71        3PY         0.00000   0.00000   0.00000  -0.00002   0.00000
  72        3PZ         0.00000   0.00000  -0.00002  -0.00013   0.00000
                          61        62        63        64        65
  61        3PY         0.00099
  62        3PZ         0.00000   0.00169
  63 8   H  1S          0.00000   0.00061   0.39442
  64        2S          0.00000   0.00012   0.11058   0.08018
  65        3PX         0.00000   0.00000   0.00000   0.00000   0.00014
  66        3PY         0.00000   0.00000   0.00000   0.00000   0.00000
  67        3PZ         0.00000   0.00014   0.00000   0.00000   0.00000
  68 9   H  1S          0.00000   0.00000  -0.00020  -0.00186  -0.00002
  69        2S          0.00000  -0.00001  -0.00053  -0.00143  -0.00009
  70        3PX         0.00000   0.00000  -0.00002  -0.00015   0.00000
  71        3PY         0.00000   0.00000   0.00000  -0.00002   0.00000
  72        3PZ         0.00000   0.00000  -0.00002  -0.00013   0.00000
                          66        67        68        69        70
  66        3PY         0.00099
  67        3PZ         0.00000   0.00169
  68 9   H  1S          0.00000   0.00000   0.38172
  69        2S          0.00000  -0.00001   0.05322   0.02113
  70        3PX         0.00000   0.00000   0.00000   0.00000   0.00525
  71        3PY         0.00000   0.00000   0.00000   0.00000   0.00000
  72        3PZ         0.00000   0.00000   0.00000   0.00000   0.00000
                          71        72
  71        3PY         0.00314
  72        3PZ         0.00000   0.00189
     Gross orbital populations:
                           1
   1 1   C  1S          1.99888
   2        2S          0.65262
   3        3S          0.41237
   4        4PX         0.67713
   5        4PY         0.67348
   6        4PZ         0.67832
   7        5PX         0.27041
   8        5PY         0.30672
   9        5PZ         0.34165
  10        6D 0        0.01150
  11        6D+1        0.00313
  12        6D-1        0.01938
  13        6D+2        0.00698
  14        6D-2        0.01833
  15 2   C  1S          1.99879
  16        2S          0.66906
  17        3S          0.37711
  18        4PX         0.59753
  19        4PY         0.66060
  20        4PZ         0.69023
  21        5PX         0.18445
  22        5PY         0.26082
  23        5PZ         0.28386
  24        6D 0        0.01801
  25        6D+1        0.01744
  26        6D-1        0.03097
  27        6D+2        0.02713
  28        6D-2        0.03824
  29 3   O  1S          1.99907
  30        2S          0.83281
  31        3S          0.89828
  32        4PX         0.76359
  33        4PY         0.92582
  34        4PZ         1.13226
  35        5PX         0.41096
  36        5PY         0.61642
  37        5PZ         0.79061
  38        6D 0        0.00240
  39        6D+1        0.00076
  40        6D-1        0.00134
  41        6D+2        0.00132
  42        6D-2        0.00870
  43 4   H  1S          0.75139
  44        2S          0.19149
  45        3PX         0.01686
  46        3PY         0.00814
  47        3PZ         0.00521
  48 5   H  1S          0.74745
  49        2S          0.17883
  50        3PX         0.00458
  51        3PY         0.01036
  52        3PZ         0.01532
  53 6   H  1S          0.74745
  54        2S          0.17883
  55        3PX         0.00458
  56        3PY         0.01036
  57        3PZ         0.01532
  58 7   H  1S          0.76877
  59        2S          0.18792
  60        3PX         0.00237
  61        3PY         0.00995
  62        3PZ         0.01550
  63 8   H  1S          0.76877
  64        2S          0.18792
  65        3PX         0.00237
  66        3PY         0.00995
  67        3PZ         0.01550
  68 9   H  1S          0.68837
  69        2S          0.06614
  70        3PX         0.03358
  71        3PY         0.02615
  72        3PZ         0.02107
          Condensed to atoms (all electrons):
              1          2          3          4          5          6
     1  C    4.546531   0.431142  -0.048295   0.396388   0.403448   0.403448
     2  C    0.431142   4.414381   0.316030  -0.026328  -0.028032  -0.028032
     3  O   -0.048295   0.316030   7.814617   0.002785   0.003156   0.003156
     4  H    0.396388  -0.026328   0.002785   0.648102  -0.022380  -0.022380
     5  H    0.403448  -0.028032   0.003156  -0.022380   0.628756  -0.027299
     6  H    0.403448  -0.028032   0.003156  -0.022380  -0.027299   0.628756
     7  H   -0.034295   0.404883  -0.030295  -0.001322  -0.009283   0.008388
     8  H   -0.034295   0.404883  -0.030295  -0.001322   0.008388  -0.009283
     9  H    0.006826  -0.034698   0.353471  -0.000441  -0.000207  -0.000207
              7          8          9
     1  C   -0.034295  -0.034295   0.006826
     2  C    0.404883   0.404883  -0.034698
     3  O   -0.030295  -0.030295   0.353471
     4  H   -0.001322  -0.001322  -0.000441
     5  H   -0.009283   0.008388  -0.000207
     6  H    0.008388  -0.009283  -0.000207
     7  H    0.698579  -0.047648  -0.004493
     8  H   -0.047648   0.698579  -0.004493
     9  H   -0.004493  -0.004493   0.519564
 Mulliken atomic charges:
              1
     1  C   -0.070898
     2  C    0.145771
     3  O   -0.384328
     4  H    0.026898
     5  H    0.043453
     6  H    0.043453
     7  H    0.015487
     8  H    0.015487
     9  H    0.164678
 Sum of Mulliken charges=   0.00000
 Atomic charges with hydrogens summed into heavy atoms:
              1
     1  C    0.042906
     2  C    0.176745
     3  O   -0.219650
     4  H    0.000000
     5  H    0.000000
     6  H    0.000000
     7  H    0.000000
     8  H    0.000000
     9  H    0.000000
 Sum of Mulliken charges=   0.00000
 Electronic spatial extent (au):  <R**2>=   194.2099
 Charge=     0.0000 electrons
 Dipole moment (field-independent basis, Debye):
    X=     0.0653    Y=     1.6863    Z=     0.0000  Tot=     1.6876
 Quadrupole moment (field-independent basis, Debye-Ang):
   XX=   -17.7948   YY=   -19.8506   ZZ=   -20.0501
   XY=    -2.4188   XZ=     0.0000   YZ=     0.0000
 Traceless Quadrupole moment (field-independent basis, Debye-Ang):
   XX=     1.4370   YY=    -0.6187   ZZ=    -0.8183
   XY=    -2.4188   XZ=     0.0000   YZ=     0.0000
 Octapole moment (field-independent basis, Debye-Ang**2):
  XXX=   -14.7723  YYY=    -0.0516  ZZZ=     0.0000  XYY=    -2.2291
  XXY=     4.8644  XXZ=     0.0000  XZZ=    -1.6496  YZZ=    -0.1636
  YYZ=     0.0000  XYZ=     0.0000
 Hexadecapole moment (field-independent basis, Debye-Ang**3):
 XXXX=  -131.1014 YYYY=   -60.8836 ZZZZ=   -32.8157 XXXY=     3.6666
 XXXZ=     0.0000 YYYX=     8.8218 YYYZ=     0.0000 ZZZX=     0.0000
 ZZZY=     0.0000 XXYY=   -34.8569 XXZZ=   -32.3388 YYZZ=   -14.1143
 XXYZ=     0.0000 YYXZ=     0.0000 ZZXY=     2.3669
 N-N= 8.153612793525D+01 E-N=-5.249278586519D+02  KE= 1.538530841786D+02
 Symmetry A'   KE= 1.454059202784D+02
 Symmetry A"   KE= 8.447163900116D+00
 Orbital energies and kinetic energies (alpha):
                           1         2
       1  (A')--O     -20.55012  29.20057
       2  (A')--O     -11.28000  16.03062
       3  (A')--O     -11.22138  16.02682
       4  (A')--O      -1.35023   2.53697
       5  (A')--O      -1.00639   1.43431
       6  (A')--O      -0.82733   1.41146
       7  (A')--O      -0.69086   1.54606
       8  (A")--O      -0.63649   1.09753
       9  (A')--O      -0.56497   1.72735
      10  (A')--O      -0.52723   1.19644
      11  (A")--O      -0.51829   1.30315
      12  (A')--O      -0.48259   1.59236
      13  (A")--O      -0.43427   1.82290
      14  (A')--V       0.18126   0.65772
      15  (A')--V       0.21446   0.74203
      16  (A")--V       0.24561   0.59446
      17  (A')--V       0.24750   0.77890
      18  (A')--V       0.26782   0.59828
      19  (A")--V       0.29303   0.64065
      20  (A')--V       0.37924   1.32479
      21  (A')--V       0.39774   1.21963
      22  (A")--V       0.60497   1.26724
      23  (A')--V       0.61525   1.26361
      24  (A')--V       0.66110   1.39556
      25  (A')--V       0.74978   2.49263
      26  (A")--V       0.75034   1.46749
      27  (A')--V       0.80492   2.24042
      28  (A')--V       0.85847   2.42792
      29  (A")--V       0.86528   2.12346
      30  (A')--V       0.88582   2.19314
      31  (A")--V       0.89459   2.05777
      32  (A')--V       0.90291   2.27161
      33  (A')--V       0.93378   2.26798
      34  (A')--V       1.12882   2.00576
      35  (A")--V       1.15133   2.08955
      36  (A')--V       1.17383   2.09997
      37  (A')--V       1.25926   3.03059
      38  (A")--V       1.32705   3.01479
      39  (A')--V       1.42543   2.33593
      40  (A")--V       1.46862   1.95128
      41  (A')--V       1.51596   2.09313
      42  (A')--V       1.57165   2.45452
      43  (A")--V       1.59404   2.13975
      44  (A")--V       1.68618   2.04607
      45  (A')--V       1.77160   2.53881
      46  (A")--V       1.86461   2.26991
      47  (A")--V       1.87890   2.50489
      48  (A')--V       1.88750   2.56370
      49  (A')--V       1.91460   2.85545
      50  (A")--V       1.93127   2.46926
      51  (A')--V       1.96190   2.75639
      52  (A")--V       1.96879   2.48238
      53  (A')--V       1.99474   2.95073
      54  (A')--V       2.09214   2.70573
      55  (A')--V       2.17929   3.37837
      56  (A")--V       2.22622   2.93928
      57  (A')--V       2.27414   3.13811
      58  (A')--V       2.31047   2.87179
      59  (A')--V       2.47457   4.08130
      60  (A")--V       2.50082   3.36084
      61  (A')--V       2.52272   3.78168
      62  (A')--V       2.56792   3.47061
      63  (A')--V       2.73438   4.09761
      64  (A')--V       2.74530   4.12730
      65  (A")--V       2.78245   3.97920
      66  (A')--V       2.87451   4.43774
      67  (A")--V       2.89067   4.44850
      68  (A")--V       3.32230   4.46885
      69  (A")--V       3.40363   4.59005
      70  (A')--V       3.46360   4.76233
      71  (A')--V       3.60278   5.05532
      72  (A')--V       4.11002   5.68230
 Total kinetic energy from orbitals= 1.538530841786D+02
 Calculating spin-rotation constants.
 Leave Link  601 at Mon Dec  7 21:54:41 2009, MaxMem=    6291456 cpu:       1.5
 (Enter /usr/local/gaussian/g03/l9999.exe)

 Test job not archived.
 1\1\GINC-HAKUNA\SP\RHF\CC-pVDZ\C2H6O1\DENINHO\07-Dec-2009\0\\#P HF/CC-
 PVDZ NMR(SPINSPIN) POP=FULL GFPRINT GFINPUT IOP(6/7=3)\\ETANOL\\0,1\C\
 C,1,1.518175\O,2,1.423123,1,107.775\H,1,1.102074,2,110.876,3,180.,0\H,
 1,1.101818,2,110.419,3,-59.68,0\H,1,1.101818,2,110.419,3,59.68,0\H,2,1
 .110184,1,109.799,4,-58.677,0\H,2,1.110184,1,109.799,4,58.677,0\H,3,0.
 967554,2,107.806,1,180.,0\\Version=AM64L-G03RevE.01\State=1-A'\HF=-154
 .0914115\RMSD=8.477e-09\Thermal=0.\Dipole=-0.5277116,0.,0.4029087\PG=C
 S [SG(C2H2O1),X(H4)]\\@


 THEORY:  SUPPOSITION WHICH HAS SCIENTIFIC BASIS,
          BUT NOT EXPERIMENTALLY PROVEN.
 FACT:    A THEORY WHICH HAS BEEN PROVEN BY ENOUGH 
          MONEY TO PAY FOR THE EXPERIMENTS.

                          --  THE WIZARD OF ID
 Job cpu time:  0 days  0 hours  0 minutes 34.6 seconds.
 File lengths (MBytes):  RWF=     24 Int=      0 D2E=      0 Chk=     10 Scr=      1
 Normal termination of Gaussian 03 at Mon Dec  7 21:54:41 2009.
