[Molden Format]
[SURFACE]
 8879     5 1
  6    -0.555786    0.475259    0.419426     2     3     4     5
  1    -0.615860    0.634626    1.495026     1
  9    -0.768418    1.626413   -0.211868     1
 17    -1.768507   -0.689127   -0.066385     1
 35     1.169456   -0.183107   -0.027892     1
100    -3.338714   -0.708058   -0.351827    -0.017983     7
100    -3.327790   -0.757077   -0.395919    -0.016987     6     8
100    -3.296274   -0.908958   -0.444022    -0.013832     7     9
100    -3.285737   -0.962643   -0.438139    -0.012685     8    10
100    -3.261101   -1.091437   -0.399629    -0.010132     9    11
100    -3.245743   -1.176528   -0.339327    -0.008721    10    12
100    -3.231389   -1.267198   -0.198743    -0.008040    11    13
100    -3.231579   -1.287970   -0.034460    -0.009404    12    14
100    -3.241797   -1.252941    0.088593    -0.011494    13    15
100    -3.254607   -1.198995    0.167029    -0.013327    14    16
100    -3.269582   -1.132272    0.231047    -0.015160    15    17
100    -3.300936   -0.981749    0.283257    -0.017856    16    18
100    -3.319897   -0.885237    0.273402    -0.019015    17    19
100    -3.335714   -0.802571    0.248841    -0.019875    18    20
100    -3.355662   -0.691680    0.167699    -0.020709    19    21
100    -3.368659   -0.607528    0.024905    -0.021038    20    22
100    -3.366652   -0.595488   -0.142338    -0.020532    21    23
100    -3.355808   -0.634456   -0.259364    -0.019538    22    24
100    -3.338714   -0.708058   -0.351827    -0.017983    23
100    -3.249684   -0.295809   -0.561266    -0.023816    26
100    -3.243606   -0.321411   -0.598417    -0.023613    25    27
100    -3.215164   -0.447576   -0.724260    -0.022289    26    28
100    -3.185056   -0.587680   -0.807964    -0.020342    27    29
100    -3.153670   -0.738478   -0.859341    -0.017844    28    30
100    -3.121004   -0.899985   -0.878344    -0.014823    29    31
100    -3.086683   -1.075336   -0.855498    -0.011158    30    32
100    -3.078070   -1.120519   -0.840867    -0.010130    31    33
100    -3.050190   -1.268854   -0.777736    -0.006981    32    34
100    -3.038868   -1.330596   -0.740765    -0.005754    33    35
100    -3.014134   -1.471146   -0.617091    -0.003165    34    36
100    -3.008597   -1.505053   -0.570948    -0.002527    35    37
100    -2.997313   -1.573668   -0.480525    -0.002012    36    38
100    -2.987383   -1.643079   -0.332732    -0.002057    37    39
100    -2.984055   -1.680758   -0.174182    -0.003161    38    40
100    -2.987285   -1.683355   -0.031948    -0.004790    39    41
100    -2.987823   -1.684342   -0.004073    -0.005262    40    42
100    -2.998978   -1.652425    0.178072    -0.008444    41    43
100    -3.008728   -1.615750    0.270919    -0.010275    42    44
100    -3.024227   -1.552777    0.383180    -0.012697    43    45
100    -3.035098   -1.506914    0.449143    -0.014220    44    46
100    -3.063709   -1.379333    0.570706    -0.017132    45    47
100    -3.093932   -1.238272    0.651518    -0.019262    46    48
100    -3.125404   -1.086757    0.700727    -0.020822    47    49
100    -3.158133   -0.924727    0.718148    -0.021882    48    50
100    -3.192513   -0.748880    0.693803    -0.022507    49    51
100    -3.203169   -0.692851    0.674721    -0.022628    50    52
100    -3.229113   -0.554462    0.613318    -0.022839    51    53
100    -3.241197   -0.488413    0.572707    -0.022906    52    54
100    -3.265294   -0.350922    0.447996    -0.023065    53    55
100    -3.271048   -0.315408    0.397903    -0.023146    54    56
100    -3.281583   -0.250956    0.310563    -0.023276    55    57
100    -3.290953   -0.184238    0.161857    -0.023575    56    58
100    -3.293527   -0.150182    0.002079    -0.023936    57    59
100    -3.290771   -0.150394   -0.100929    -0.024144    58    60
100    -3.289176   -0.149401   -0.168981    -0.024263    59    61
100    -3.276704   -0.187646   -0.353271    -0.024384    60    62
100    -3.269872   -0.213451   -0.417544    -0.024313    61    63
100    -3.249684   -0.295809   -0.561266    -0.023816    62
100    -3.080396   -0.269247   -0.901465    -0.024810    65
100    -3.065429   -0.336757   -0.959225    -0.024415    64    66
100    -3.035211   -0.477779   -1.040156    -0.023186    65    67
100    -3.003879   -0.628126   -1.092895    -0.021411    66    68
100    -2.971451   -0.787634   -1.117942    -0.019049    67    69
100    -2.949887   -0.896418   -1.114094    -0.017051    68    70
100    -2.937925   -0.956338   -1.115191    -0.016112    69    71
100    -2.903301   -1.134228   -1.084667    -0.012801    70    72
100    -2.886793   -1.221316   -1.052920    -0.010944    71    73
100    -2.866768   -1.328087   -1.005873    -0.008813    72    74
100    -2.849039   -1.424436   -0.950459    -0.006946    73    75
100    -2.827118   -1.548017   -0.848269    -0.004383    74    76
100    -2.822973   -1.571386   -0.828955    -0.004082    75    77
100    -2.802542   -1.691260   -0.698271    -0.002539    76    78
100    -2.789088   -1.777602   -0.556219    -0.001716    77    79
100    -2.780530   -1.840417   -0.406191    -0.001812    78    80
100    -2.776216   -1.882838   -0.249249    -0.002879    79    81
100    -2.776661   -1.902385   -0.084551    -0.004751    80    82
100    -2.783786   -1.889835    0.091028    -0.007146    81    83
100    -2.787788   -1.877074    0.146457    -0.007925    82    84
100    -2.797099   -1.847548    0.276689    -0.010313    83    85
100    -2.811047   -1.794267    0.403370    -0.012598    84    86
100    -2.821540   -1.751783    0.480481    -0.014043    85    87
100    -2.837373   -1.685808    0.582734    -0.016026    86    88
100    -2.865715   -1.560477    0.711096    -0.018384    87    89
100    -2.868859   -1.546073    0.721547    -0.018568    88    90
100    -2.894936   -1.427793    0.817232    -0.020251    89    91
100    -2.925402   -1.284698    0.891894    -0.021412    90    92
100    -2.956924   -1.132760    0.939824    -0.022045    91    93
100    -2.989538   -0.971697    0.960171    -0.022245    92    94
100    -3.010908   -0.863441    0.952979    -0.022197    93    95
100    -3.023261   -0.801348    0.952448    -0.022087    94    96
100    -3.058134   -0.621375    0.915630    -0.021616    95    97
100    -3.071626   -0.549965    0.887932    -0.021401    96    98
100    -3.094960   -0.425064    0.829420    -0.020960    97    99
100    -3.108814   -0.349565    0.784549    -0.020689    98   100
100    -3.134254   -0.205621    0.662026    -0.020344    99   101
100    -3.135279   -0.199533    0.654885    -0.020343   100   102
100    -3.154868   -0.084870    0.531640    -0.020151   101   103
100    -3.168381    0.001755    0.389684    -0.020358   102   104
100    -3.176720    0.063518    0.239299    -0.020849   103   105
100    -3.180526    0.103496    0.081528    -0.021553   104   106
100    -3.179128    0.118468   -0.084720    -0.022452   105   107
100    -3.171094    0.100117   -0.250945    -0.023466   106   108
100    -3.170628    0.099311   -0.262540    -0.023524   107   109
100    -3.157069    0.055837   -0.448603    -0.024478   108   110
100    -3.148575    0.023502   -0.526573    -0.024824   109   111
100    -3.131488   -0.045405   -0.654251    -0.025220   110   112
100    -3.122548   -0.082458   -0.713496    -0.025311   111   113
100    -3.094614   -0.204373   -0.852185    -0.025142   112   114
100    -3.080396   -0.269247   -0.901465    -0.024810   113
100    -2.938030   -0.134994   -1.033829    -0.025901   116
100    -2.912985   -0.248596   -1.125698    -0.025771   115   117
100    -2.882623   -0.390825   -1.202978    -0.025150   116   118
100    -2.851324   -0.540894   -1.256561    -0.024036   117   119
100    -2.819117   -0.698561   -1.287172    -0.022413   118   120
100    -2.785770   -0.865765   -1.288955    -0.020108   119   121
100    -2.782666   -0.881614   -1.286955    -0.019840   120   122
100    -2.751949   -1.036931   -1.278760    -0.017687   121   123
100    -2.718440   -1.211947   -1.227623    -0.014477   122   124
100    -2.716384   -1.222689   -1.224452    -0.014307   123   125
100    -2.679364   -1.420625   -1.133333    -0.010665   124   126
100    -2.678071   -1.427633   -1.129423    -0.010542   125   127
100    -2.647561   -1.595945   -1.015161    -0.007705   126   128
100    -2.639405   -1.643144   -0.967901    -0.006660   127   129
100    -2.624266   -1.729576   -0.889141    -0.005752   128   130
100    -2.606951   -1.834474   -0.753380    -0.004493   129   131
100    -2.595114   -1.913048   -0.608695    -0.003755   130   132
100    -2.587112   -1.973193   -0.457761    -0.003836   131   133
100    -2.582430   -2.017382   -0.301418    -0.004814   132   134
100    -2.581473   -2.043667   -0.139005    -0.006512   133   135
100    -2.585758   -2.044766    0.031947    -0.008579   134   136
100    -2.594402   -2.019665    0.170305    -0.010184   135   137
100    -2.596675   -2.013993    0.213704    -0.010937   136   138
100    -2.613579   -1.954443    0.405218    -0.013866   137   139
100    -2.617254   -1.940264    0.437515    -0.014358   138   140
100    -2.641261   -1.843103    0.614290    -0.017087   139   141
100    -2.643175   -1.835196    0.627129    -0.017290   140   142
100    -2.670528   -1.718133    0.780488    -0.019529   141   143
100    -2.691520   -1.623271    0.860144    -0.020494   142   144
100    -2.699442   -1.588023    0.894401    -0.020897   143   145
100    -2.729020   -1.452351    0.991505    -0.021771   144   146
100    -2.759690   -1.307550    1.061009    -0.022068   145   147
100    -2.791238   -1.155397    1.108290    -0.021913   146   148
100    -2.823707   -0.995538    1.132276    -0.021373   147   149
100    -2.854888   -0.838184    1.126312    -0.020627   148   150
100    -2.857337   -0.825967    1.126903    -0.020542   149   151
100    -2.891404   -0.652741    1.110482    -0.019301   150   152
100    -2.918080   -0.512820    1.065295    -0.018326   151   153
100    -2.927236   -0.464746    1.049414    -0.017933   152   154
100    -2.958332   -0.297695    0.966904    -0.016680   153   155
100    -2.964830   -0.262010    0.943783    -0.016440   154   156
100    -2.988801   -0.129585    0.852574    -0.015512   155   157
100    -3.006009   -0.029286    0.747503    -0.015144   156   158
100    -3.010456   -0.003830    0.723884    -0.015008   157   159
100    -3.029018    0.107058    0.590154    -0.014734   158   160
100    -3.041360    0.188057    0.446291    -0.015030   159   161
100    -3.049368    0.248231    0.295367    -0.015716   160   162
100    -3.053598    0.290246    0.138287    -0.016710   161   163
100    -3.053498    0.311455   -0.025847    -0.018008   162   164
100    -3.047192    0.302841   -0.200092    -0.019675   163   165
100    -3.044915    0.296221   -0.236492    -0.020059   164   166
100    -3.037654    0.278693   -0.379603    -0.021327   165   167
100    -3.023254    0.226789   -0.533836    -0.022832   166   168
100    -3.019268    0.212026   -0.573530    -0.023177   167   169
100    -2.998012    0.127393   -0.740598    -0.024541   168   170
100    -2.990846    0.097127   -0.783808    -0.024865   169   171
100    -2.970998    0.013179   -0.902567    -0.025524   170   172
100    -2.942250   -0.115549   -1.020660    -0.025899   171   173
100    -2.938030   -0.134994   -1.033829    -0.025901   172
100    -2.766896   -0.138992   -1.213064    -0.026218   175
100    -2.758574   -0.176903   -1.242387    -0.026288   174   176
100    -2.728279   -0.318568   -1.321375    -0.026238   175   177
100    -2.697025   -0.468263   -1.376084    -0.025729   176   178
100    -2.664852   -0.625642   -1.407569    -0.024722   177   179
100    -2.645286   -0.723406   -1.411197    -0.023793   178   180
100    -2.631923   -0.789344   -1.419937    -0.023241   179   181
100    -2.598463   -0.957498   -1.418848    -0.021501   180   182
100    -2.565010   -1.130868   -1.378014    -0.018960   181   183
100    -2.563370   -1.139309   -1.376472    -0.018859   182   184
100    -2.527517   -1.327470   -1.314902    -0.016160   183   185
100    -2.517957   -1.378676   -1.290704    -0.015332   184   186
100    -2.489554   -1.533301   -1.199917    -0.012769   185   187
100    -2.484274   -1.562231   -1.181610    -0.012374   186   188
100    -2.457356   -1.713277   -1.061495    -0.010210   187   189
100    -2.448165   -1.767786   -0.998313    -0.009083   188   190
100    -2.436413   -1.835612   -0.931646    -0.008653   189   191
100    -2.419719   -1.937521   -0.794871    -0.007826   190   192
100    -2.408205   -2.014544   -0.649660    -0.007319   191   193
100    -2.400324   -2.074105   -0.498528    -0.007421   192   194
100    -2.395595   -2.118520   -0.342262    -0.008210   193   195
100    -2.394406   -2.145922   -0.180228    -0.009532   194   196
100    -2.398192   -2.149419   -0.010089    -0.011079   195   197
100    -2.404537   -2.132791    0.105082    -0.012026   196   198
100    -2.406950   -2.129019    0.168152    -0.012965   197   199
100    -2.420543   -2.085384    0.354270    -0.015269   198   200
100    -2.425977   -2.065208    0.408017    -0.015891   199   201
100    -2.441674   -2.005525    0.552669    -0.017730   200   202
100    -2.450888   -1.968590    0.623178    -0.018580   201   203
100    -2.475943   -1.862530    0.772473    -0.020155   202   204
100    -2.477927   -1.854162    0.784499    -0.020283   203   205
100    -2.505731   -1.733332    0.926466    -0.021508   204   206
100    -2.535185   -1.598703    1.026722    -0.021987   205   207
100    -2.541374   -1.569783    1.043047    -0.022025   206   208
100    -2.564976   -1.461249    1.118437    -0.022020   207   209
100    -2.595677   -1.316183    1.187142    -0.021556   208   210
100    -2.627274   -1.163622    1.233191    -0.020689   209   211
100    -2.659823   -1.003091    1.255145    -0.019494   210   212
100    -2.671014   -0.946787    1.254261    -0.019052   211   213
100    -2.692888   -0.838252    1.264075    -0.017893   212   214
100    -2.726826   -0.666106    1.250919    -0.015993   213   215
100    -2.749636   -0.547268    1.218385    -0.014726   214   216
100    -2.762107   -0.482717    1.203773    -0.013920   215   217
100    -2.795474   -0.305301    1.129095    -0.011903   216   218
100    -2.798824   -0.287319    1.120326    -0.011697   217   219
100    -2.830086   -0.117279    1.021516    -0.009838   218   220
100    -2.837497   -0.075560    0.987422    -0.009469   219   221
100    -2.857409    0.035709    0.902059    -0.008438   220   222
100    -2.876831    0.150736    0.769731    -0.007860   221   223
100    -2.881198    0.178266    0.727348    -0.007841   222   224
100    -2.893847    0.254197    0.633484    -0.007636   223   225
100    -2.906462    0.336507    0.490064    -0.007958   224   226
100    -2.914580    0.397210    0.339320    -0.008816   225   227
100    -2.918778    0.439069    0.182187    -0.010124   226   228
100    -2.918512    0.459482    0.017783    -0.011873   227   229
100    -2.914267    0.454942   -0.109032    -0.013487   228   230
100    -2.913676    0.457930   -0.154068    -0.013994   229   231
100    -2.906625    0.445732   -0.329527    -0.016182   230   232
100    -2.895125    0.406585   -0.470082    -0.018165   231   233
100    -2.891481    0.394647   -0.518171    -0.018775   232   234
100    -2.870954    0.316149   -0.703933    -0.021257   233   235
100    -2.869056    0.308570   -0.718678    -0.021447   234   236
100    -2.844838    0.209444   -0.888601    -0.023449   235   237
100    -2.835204    0.167577   -0.937803    -0.024041   236   238
100    -2.817284    0.090711   -1.036909    -0.024943   237   239
100    -2.788386   -0.039270   -1.151215    -0.025875   238   240
100    -2.766896   -0.138992   -1.213064    -0.026218   239
100    -2.663449    0.160597   -1.118049    -0.023470   242
100    -2.661804    0.153466   -1.126580    -0.023574   241   243
100    -2.633283    0.026639   -1.250420    -0.025019   242   244
100    -2.603425   -0.111376   -1.340441    -0.025992   243   245
100    -2.572742   -0.256291   -1.409600    -0.026505   244   246
100    -2.541458   -0.406232   -1.463567    -0.026565   245   247
100    -2.509606   -0.560926   -1.503167    -0.026209   246   248
100    -2.477044   -0.721560   -1.524811    -0.025458   247   249
100    -2.443401   -0.891240   -1.519108    -0.024197   248   250
100    -2.427066   -0.975370   -1.503176    -0.023320   249   251
100    -2.409007   -1.067205   -1.494405    -0.022540   250   252
100    -2.373275   -1.254362   -1.435869    -0.020255   251   253
100    -2.370889   -1.267023   -1.430730    -0.020082   252   254
100    -2.336436   -1.450776   -1.349352    -0.017761   253   255
100    -2.330644   -1.482112   -1.332327    -0.017358   254   256
100    -2.300189   -1.650154   -1.217974    -0.015050   255   257
100    -2.297207   -1.667190   -1.202373    -0.014744   256   258
100    -2.274117   -1.797134   -1.096480    -0.013550   257   259
100    -2.256239   -1.904741   -0.961637    -0.011954   258   260
100    -2.252906   -1.926042   -0.927110    -0.011538   259   261
100    -2.239714   -2.005841   -0.824589    -0.011434   260   262
100    -2.227466   -2.086390   -0.680573    -0.011290   261   263
100    -2.219358   -2.147042   -0.529811    -0.011452   262   264
100    -2.214859   -2.190349   -0.373169    -0.011995   263   265
100    -2.214414   -2.214176   -0.209923    -0.012812   264   266
100    -2.218651   -2.212634   -0.060752    -0.013528   265   267
100    -2.218804   -2.214771   -0.038800    -0.013802   266   268
100    -2.223860   -2.212162    0.133409    -0.015658   267   269
100    -2.237300   -2.168398    0.312758    -0.017102   268   270
100    -2.237755   -2.167077    0.320019    -0.017188   269   271
100    -2.254903   -2.106360    0.511928    -0.019119   270   272
100    -2.260836   -2.083280    0.562681    -0.019567   271   273
100    -2.282539   -1.995238    0.720926    -0.020846   272   274
100    -2.286831   -1.977593    0.750427    -0.021068   273   275
100    -2.314090   -1.861322    0.906176    -0.021945   274   276
100    -2.326321   -1.806527    0.956229    -0.022088   275   277
100    -2.342454   -1.735811    1.033996    -0.022202   276   278
100    -2.371718   -1.602770    1.139050    -0.021920   277   279
100    -2.402021   -1.461032    1.217815    -0.021204   278   280
100    -2.433011   -1.313552    1.279224    -0.020067   279   281
100    -2.464557   -1.161413    1.326546    -0.018499   280   282
100    -2.496704   -1.004246    1.358670    -0.016530   281   283
100    -2.529690   -0.840067    1.369596    -0.014255   282   284
100    -2.564046   -0.664422    1.345862    -0.011785   283   285
100    -2.564863   -0.660188    1.344871    -0.011725   284   286
100    -2.598498   -0.487977    1.319709    -0.008926   285   287
100    -2.622152   -0.363191    1.274238    -0.007013   286   288
100    -2.634662   -0.297205    1.250246    -0.005966   287   289
100    -2.662314   -0.148500    1.175700    -0.003731   288   290
100    -2.672427   -0.093039    1.140294    -0.002952   289   291
100    -2.693901    0.024985    1.063192    -0.001377   290   292
100    -2.713151    0.135885    0.955499    -0.000198   291   293
100    -2.717086    0.158092    0.936995     0.000021   292   294
100    -2.738519    0.282778    0.807943     0.000923   293   295
100    -2.752927    0.373708    0.667446     0.000998   294   296
100    -2.763151    0.444526    0.520131     0.000453   295   297
100    -2.766491    0.470361    0.451626     0.000015   296   298
100    -2.771224    0.505011    0.369313    -0.000612   297   299
100    -2.773486    0.528878    0.274731    -0.001548   298   300
100    -2.775445    0.546984    0.212218    -0.002232   299   301
100    -2.777546    0.578770    0.051670    -0.004270   300   302
100    -2.775540    0.590819   -0.115569    -0.006726   301   303
100    -2.766680    0.569930   -0.293976    -0.009694   302   304
100    -2.764005    0.561355   -0.330680    -0.010342   303   305
100    -2.755656    0.538642   -0.475908    -0.012760   304   306
100    -2.741883    0.488064   -0.616357    -0.015260   305   307
100    -2.736339    0.467502   -0.671351    -0.016192   306   308
100    -2.716814    0.390119   -0.827505    -0.018840   307   309
100    -2.708520    0.355503   -0.880646    -0.019751   308   310
100    -2.690161    0.278916   -0.998576    -0.021543   309   311
100    -2.663449    0.160597   -1.118049    -0.023470   310
100    -2.465747    0.028922   -1.340571    -0.023979   313
100    -2.446963   -0.056835   -1.405279    -0.024871   312   314
100    -2.416584   -0.199205   -1.482134    -0.025912   313   315
100    -2.385374   -0.348530   -1.537963    -0.026546   314   316
100    -2.353386   -0.504364   -1.574116    -0.026775   315   317
100    -2.320452   -0.668112   -1.586348    -0.026557   316   318
100    -2.315658   -0.692345   -1.585102    -0.026477   317   319
100    -2.287401   -0.832840   -1.595612    -0.025996   318   320
100    -2.253238   -1.006864   -1.576780    -0.024996   319   321
100    -2.235668   -1.098437   -1.551454    -0.024227   320   322
100    -2.218072   -1.189292   -1.532539    -0.023570   321   323
100    -2.187250   -1.352804   -1.466368    -0.021922   322   324
100    -2.181508   -1.383409   -1.452965    -0.021624   323   325
100    -2.150496   -1.551117   -1.362277    -0.019881   324   326
100    -2.143379   -1.590613   -1.333829    -0.019377   325   327
100    -2.120694   -1.716022   -1.246860    -0.018253   326   328
100    -2.101977   -1.825215   -1.131870    -0.016707   327   329
100    -2.099175   -1.841125   -1.117949    -0.016631   328   330
100    -2.078365   -1.962819   -0.987883    -0.015960   329   331
100    -2.064164   -2.052750   -0.847048    -0.015223   330   332
100    -2.053971   -2.123424   -0.699684    -0.014741   331   333
100    -2.046559   -2.180729   -0.547787    -0.014730   332   334
100    -2.041552   -2.226481   -0.391974    -0.015241   333   335
100    -2.039268   -2.259146   -0.231724    -0.016146   334   336
100    -2.040864   -2.273166   -0.065153    -0.017200   335   337
100    -2.048844   -2.256504    0.111820    -0.018132   336   338
100    -2.051345   -2.248823    0.148679    -0.018305   337   339
100    -2.058303   -2.232738    0.291202    -0.019519   338   340
100    -2.072868   -2.180546    0.449513    -0.020469   339   341
100    -2.075886   -2.169930    0.483820    -0.020714   340   342
100    -2.097617   -2.085275    0.668747    -0.021738   341   343
100    -2.100201   -2.074767    0.687408    -0.021822   342   344
100    -2.123878   -1.977354    0.849738    -0.022371   343   345
100    -2.135929   -1.924763    0.909588    -0.022420   344   346
100    -2.151498   -1.858067    0.996372    -0.022362   345   347
100    -2.180243   -1.729369    1.114556    -0.021837   346   348
100    -2.203473   -1.621860    1.183606    -0.021169   347   349
100    -2.209961   -1.592526    1.208120    -0.020882   348   350
100    -2.239900   -1.453833    1.296089    -0.019374   349   351
100    -2.270767   -1.307386    1.360619    -0.017500   350   352
100    -2.302407   -1.154460    1.405563    -0.015269   351   353
100    -2.334891   -0.994480    1.429183    -0.012706   352   354
100    -2.354013   -0.898427    1.428871    -0.011105   353   355
100    -2.367989   -0.829360    1.437264    -0.009763   354   356
100    -2.401469   -0.661045    1.435688    -0.006479   355   357
100    -2.434103   -0.491854    1.395387    -0.003197   356   358
100    -2.436553   -0.479312    1.393551    -0.002941   357   359
100    -2.472035   -0.294241    1.341321     0.000759   358   360
100    -2.484184   -0.229496    1.313009     0.002024   359   361
100    -2.509201   -0.095090    1.246528     0.004561   360   362
100    -2.521267   -0.029603    1.209454     0.005725   361   363
100    -2.548774    0.124277    1.090300     0.008273   362   364
100    -2.548802    0.124435    1.090145     0.008275   363   365
100    -2.574807    0.271070    0.968743     0.010066   364   366
100    -2.591583    0.373378    0.832103     0.010953   365   367
100    -2.593056    0.382897    0.816061     0.011010   366   368
100    -2.608439    0.476067    0.695593     0.011082   367   369
100    -2.620347    0.554981    0.551023     0.010473   368   370
100    -2.628241    0.614607    0.399914     0.009178   369   371
100    -2.632644    0.657455    0.243116     0.007239   370   372
100    -2.633083    0.681255    0.079861     0.004716   371   373
100    -2.628471    0.679188   -0.079616     0.001898   372   374
100    -2.628414    0.680504   -0.091719     0.001659   373   375
100    -2.624104    0.681483   -0.262711    -0.001785   374   376
100    -2.610843    0.639442   -0.448289    -0.005682   375   377
100    -2.610004    0.636485   -0.457759    -0.005886   376   378
100    -2.595681    0.588269   -0.636962    -0.009706   377   379
100    -2.586804    0.554176   -0.716174    -0.011413   378   380
100    -2.571121    0.491931   -0.840948    -0.014062   379   381
100    -2.561175    0.451542   -0.913149    -0.015545   380   382
100    -2.533745    0.333842   -1.064581    -0.018743   381   383
100    -2.533313    0.331930   -1.066518    -0.018786   382   384
100    -2.506044    0.213877   -1.209165    -0.021354   383   385
100    -2.476655    0.079790   -1.311058    -0.023365   384   386
100    -2.465747    0.028922   -1.340571    -0.023979   385
100    -2.339158    0.217303   -1.283259    -0.019100   388
100    -2.319774    0.130826   -1.365304    -0.020816   387   389
100    -2.290045   -0.006110   -1.458584    -0.022862   388   390
100    -2.259442   -0.150357   -1.529765    -0.024470   389   391
100    -2.228208   -0.299882   -1.584990    -0.025660   390   392
100    -2.196391   -0.454285   -1.625469    -0.026441   391   393
100    -2.163864   -0.614627   -1.647995    -0.026839   392   394
100    -2.130275   -0.783852   -1.643668    -0.026837   393   395
100    -2.121888   -0.826815   -1.637246    -0.026756   394   396
100    -2.096491   -0.954713   -1.634395    -0.026459   395   397
100    -2.061288   -1.137445   -1.589237    -0.025604   396   398
100    -2.056332   -1.163538   -1.580080    -0.025439   397   399
100    -2.025449   -1.325496   -1.527998    -0.024475   398   400
100    -2.010629   -1.404860   -1.490571    -0.023876   399   401
100    -1.987799   -1.528698   -1.420961    -0.022860   400   402
100    -1.976167   -1.592160   -1.382747    -0.022381   401   403
100    -1.949713   -1.740973   -1.261874    -0.020965   402   404
100    -1.947571   -1.753473   -1.248708    -0.020807   403   405
100    -1.925123   -1.880836   -1.137968    -0.020103   404   406
100    -1.908204   -1.983827   -1.001560    -0.019149   405   407
100    -1.901224   -2.029441   -0.921702    -0.018596   406   408
100    -1.893790   -2.074786   -0.861074    -0.018610   407   409
100    -1.881522   -2.155428   -0.717089    -0.018543   408   410
100    -1.873449   -2.215912   -0.566271    -0.018601   409   411
100    -1.869045   -2.258768   -0.409475    -0.018832   410   412
100    -1.868774   -2.281756   -0.245945    -0.019172   411   413
100    -1.871012   -2.282206   -0.157604    -0.019303   412   414
100    -1.871091   -2.292310   -0.078199    -0.019809   413   415
100    -1.875419   -2.293202    0.092824    -0.020710   414   416
100    -1.887546   -2.255666    0.269401    -0.021324   415   417
100    -1.887927   -2.254780    0.277174    -0.021370   416   418
100    -1.901543   -2.211037    0.463329    -0.022205   417   419
100    -1.910119   -2.178606    0.543685    -0.022438   418   420
100    -1.923764   -2.125940    0.663504    -0.022707   419   421
100    -1.935318   -2.079571    0.751538    -0.022783   420   422
100    -1.957085   -1.987500    0.881763    -0.022629   421   423
100    -1.962292   -1.965685    0.914499    -0.022538   422   424
100    -1.990004   -1.845632    1.058817    -0.021747   423   425
100    -2.010769   -1.751203    1.133199    -0.020986   424   426
100    -2.019014   -1.714712    1.170284    -0.020534   425   427
100    -2.048293   -1.581543    1.274954    -0.018749   426   428
100    -2.078611   -1.439683    1.353348    -0.016623   427   429
100    -2.109630   -1.291956    1.414009    -0.014103   428   430
100    -2.141235   -1.139329    1.459858    -0.011178   429   431
100    -2.173485   -0.981302    1.489379    -0.007883   430   432
100    -2.206640   -0.815709    1.496032    -0.004233   431   433
100    -2.226442   -0.714765    1.484582    -0.001904   432   434
100    -2.240452   -0.644614    1.486054    -0.000218   433   435
100    -2.274821   -0.468857    1.461980     0.004027   434   436
100    -2.293856   -0.369110    1.430445     0.006496   435   437
100    -2.310376   -0.283183    1.407928     0.008533   436   438
100    -2.339418   -0.128467    1.340706     0.012226   437   439
100    -2.347270   -0.086301    1.319995     0.013188   438   440
100    -2.375203    0.065187    1.235036     0.016415   439   441
100    -2.385861    0.124773    1.189161     0.017686   440   442
100    -2.404069    0.225598    1.118095     0.019376   441   443
100    -2.425318    0.349398    0.988743     0.021412   442   444
100    -2.428127    0.366592    0.965383     0.021697   443   445
100    -2.445724    0.469152    0.858019     0.022360   444   446
100    -2.460552    0.562099    0.718206     0.022514   445   447
100    -2.470968    0.633843    0.571205     0.021893   446   448
100    -2.478340    0.690955    0.419243     0.020409   447   449
100    -2.483071    0.735384    0.262981     0.018062   448   450
100    -2.484776    0.765266    0.101787     0.014974   449   451
100    -2.482122    0.774198   -0.066509     0.011342   450   452
100    -2.474759    0.756738   -0.214010     0.008049   451   453
100    -2.474042    0.757056   -0.243645     0.007260   452   454
100    -2.465282    0.736649   -0.421888     0.002654   453   455
100    -2.454394    0.698148   -0.544131    -0.000420   454   456
100    -2.448950    0.679852   -0.612468    -0.002206   455   457