IRIX64 cmsc 6.2 03131016 IP25
 Entering Gaussian System, Link 0=g94
 Initial command:
 /cmsc/g94/l1.exe /work/g94-14173.inp -scrdir=/work/
 Entering Link 1 = /cmsc/g94/l1.exe PID=     14177.
  
       Copyright (c) 1988,1990,1992,1993,1995 Gaussian, Inc.
                     All Rights Reserved.
  
 This is part of the Gaussian 94(TM) system of programs. It is
 based on the the Gaussian 92(TM) system (copyright 1992
 Gaussian, Inc.), the Gaussian 90(TM) system (copyright 1990
 Gaussian, Inc.), the Gaussian 88(TM) system (copyright 1988
 Gaussian, Inc.), the Gaussian 86(TM) system (copyright 1986
 Carnegie Mellon University), and the Gaussian 82(TM) system
 (copyright 1983 Carnegie Mellon University). Gaussian is a
 federally registered trademark of Gaussian, Inc.
  
 This software is provided under written license and may be
 used, copied, transmitted, or stored only in accord with that
 written license.
  
 The following legend is applicable only to US Government
 contracts under DFARS:
  
                    RESTRICTED RIGHTS LEGEND
  
 Use, duplication or disclosure by the US Government is subject
 to restrictions as set forth in subparagraph (c)(1)(ii) of the
 Rights in Technical Data and Computer Software clause at DFARS
 252.227-7013.
  
 Gaussian, Inc.
 Carnegie Office Park, Building 6, Pittsburgh, PA 15106 USA
  
 The following legend is applicable only to US Government
 contracts under FAR:
  
                    RESTRICTED RIGHTS LEGEND
  
 Use, reproduction and disclosure by the US Government is subject
 to restrictions as set forth in subparagraph (c) of the
 Commercial Computer Software - Restricted Rights clause at FAR
 52.227-19.
  
 Gaussian, Inc.
 Carnegie Office Park, Building 6, Pittsburgh, PA 15106 USA
  
  
 ---------------------------------------------------------------
 Warning -- This program may not be used in any manner that
 competes with the business of Gaussian, Inc. or will provide
 assistance to any competitor of Gaussian, Inc.  The licensee
 of this program is prohibited from giving any competitor of
 Gaussian, Inc. access to this program.  By using this program,
 the user acknowledges that Gaussian, Inc. is engaged in the
 business of creating and licensing software in the field of
 computational chemistry and represents and warrants to the
 licensee that it is not a competitor of Gaussian, Inc. and that
 it will not use this program in any manner prohibited above.
 ---------------------------------------------------------------
  
 Cite this work as:
 Gaussian 94, Revision D.4,
 M. J. Frisch, G. W. Trucks, H. B. Schlegel, P. M. W. Gill,
 B. G. Johnson, M. A. Robb, J. R. Cheeseman, T. Keith,
 G. A. Petersson, J. A. Montgomery, K. Raghavachari,
 M. A. Al-Laham, V. G. Zakrzewski, J. V. Ortiz, J. B. Foresman,
 J. Cioslowski, B. B. Stefanov, A. Nanayakkara, M. Challacombe,
 C. Y. Peng, P. Y. Ayala, W. Chen, M. W. Wong, J. L. Andres,
 E. S. Replogle, R. Gomperts, R. L. Martin, D. J. Fox,
 J. S. Binkley, D. J. Defrees, J. Baker, J. P. Stewart,
 M. Head-Gordon, C. Gonzalez, and J. A. Pople,
 Gaussian, Inc., Pittsburgh PA, 1995.
  
 ***************************************
 Gaussian 94:  SGI-G94RevD.4  6-Jul-1996
                6-Mar-1997
 ***************************************
 ------------------------------------------
 #p hf/6-31g** nosymm gfinput iop(6/7=3) 6d
 ------------------------------------------
 1/38=1/1;
 2/12=2,15=1/2;
 3/5=1,6=6,7=101,8=2,11=9,24=10,25=1,30=1,31=1/1,2,3;
 4//1;
 5/5=2,32=1,38=4/2;
 6/7=3,8=2,9=2,10=2,19=1,28=1/1;
 99/5=1,9=1/99;
 Leave Link    1 at Thu Mar  6 15:59:08 1997, MaxMem=          0 cpu:       0.1
 (Enter /cmsc/g94/l101.exe)
 ---------------------------
 uracil 6-31g** single point
 ---------------------------
 Symbolic Z-matrix:
    Charge = 0 Multiplicity = 1
 c
 c     1     cc2
 c     2     cc3       1     ccc3
 c     3     cc4       2     ccc4      1     dih4      0
 h     4     hc5       3     hcc5      2     dih5      0
 h     1     hc6       2     hcc6      3     dih6      0
 h     2     hc7       3     hcc7      4     dih7      0
 h     3     hc8       2     hcc8      1     dih8      0
 n     1     nc9       2     ncc9      3     dih9      0
 n     1     nc10      9     ncn10     4     dih10     0
 o     1     oc11      9     ocn11     4     dih11     0
 o     2     oc12      3     occ12     4     dih12     0
       Variables:
  cc2                   2.45557                  
  cc3                   1.42957                  
  ccc3                 88.777                    
  cc4                   1.34012                  
  ccc4                118.863                    
  dih4                 -0.151                    
  hc5                   1.08                     
  hcc5                123.242                    
  dih5               -178.298                    
  hc6                   2.01879                  
  hcc6                114.268                    
  dih6                  2.174                    
  hc7                   2.02224                  
  hcc7                142.269                    
  dih7                  0.72                     
  hc8                   1.08                     
  hcc8                118.071                    
  dih8               -178.472                    
  nc9                   1.37131                  
  ncc9                 87.394                    
  dih9                  0.234                    
  nc10                  1.37651                  
  ncn10               113.979                    
  dih10                -0.036                    
  oc11                  1.21543                  
  ocn11               123.707                    
  dih11               179.727                    
  oc12                  1.24507                  
  occ12               125.316                    
  dih12               179.305                    
 Leave Link  101 at Thu Mar  6 15:59:08 1997, MaxMem=    4000000 cpu:       0.1
 (Enter /cmsc/g94/l202.exe)
 ------------------------------------------------------------------------
                         Z-MATRIX (ANGSTROMS AND DEGREES)
 CD Cent Atom  N1     Length/X     N2    Alpha/Y     N3     Beta/Z      J
 ------------------------------------------------------------------------
   1   1  C 
   2   2  C     1   2.455569(  1)
   3   3  C     2   1.429569(  2)   1   88.777( 12)
   4   4  C     3   1.340116(  3)   2  118.863( 13)   1   -0.151( 22)   0
   5   5  H     4   1.080000(  4)   3  123.242( 14)   2 -178.298( 23)   0
   6   6  H     1   2.018792(  5)   2  114.268( 15)   3    2.174( 24)   0
   7   7  H     2   2.022239(  6)   3  142.269( 16)   4    0.720( 25)   0
   8   8  H     3   1.080000(  7)   2  118.071( 17)   1 -178.472( 26)   0
   9   9  N     1   1.371306(  8)   2   87.394( 18)   3    0.234( 27)   0
  10  10  N     1   1.376515(  9)   9  113.979( 19)   4   -0.036( 28)   0
  11  11  O     1   1.215432( 10)   9  123.707( 20)   4  179.727( 29)   0
  12  12  O     2   1.245072( 11)   3  125.316( 21)   4  179.305( 30)   0
 ------------------------------------------------------------------------
                  Z-Matrix orientation:
 ----------------------------------------------------------
 Center     Atomic              Coordinates (Angstroms)
 Number     Number             X           Y           Z
 ----------------------------------------------------------
    1          6           0.000000    0.000000    0.000000
    2          6           0.000000    0.000000    2.455569
    3          6           1.429243    0.000000    2.425057
    4          6           2.050943   -0.003093    1.237879
    5          1           3.125433   -0.030139    1.132338
    6          1           1.839073   -0.069814   -0.829734
    7          1          -1.625420   -0.018812    1.252611
    8          1           1.957671   -0.025411    3.366608
    9          7           1.369876   -0.005595    0.062350
   10          7          -0.615999    0.007537    1.230968
   11          8          -0.627823    0.002710   -1.040723
   12          8          -0.697911   -0.009646    3.486603
 ----------------------------------------------------------
                    Distance matrix (angstroms):
              1          2          3          4          5
  1  C    0.000000
  2  C    2.455569   0.000000
  3  C    2.814895   1.429569   0.000000
  4  C    2.395563   2.385193   1.340116   0.000000
  5  H    3.324369   3.394139   2.132860   1.080000   0.000000
  6  H    2.018792   3.765671   3.281234   2.079511   2.346492
  7  H    2.052164   2.022239   3.271995   3.676426   4.752389
  8  H    3.894505   2.159424   1.080000   2.130888   2.521042
  9  N    1.371306   2.757551   2.363459   1.358575   2.056078
 10  N    1.376515   1.370824   2.368316   2.666972   3.742921
 11  O    1.215432   3.552215   4.030281   3.516796   4.337074
 12  O    3.555780   1.245072   2.377343   3.551479   4.490094
              6          7          8          9         10
  6  H    0.000000
  7  H    4.042458   0.000000
  8  H    4.198253   4.160236   0.000000
  9  N    1.009992   3.223150   3.356191   0.000000
 10  N    3.206221   1.009997   3.344520   2.304244   0.000000
 11  O    2.476964   2.501009   5.109808   2.282026   2.271727
 12  O    5.007062   2.418900   2.658338   4.000159   2.257187
             11         12
 11  O    0.000000
 12  O    4.527886   0.000000
                           Interatomic angles:
       C1-C2-C3= 88.777        C2-C3-C4=118.863        C3-C4-H5=123.242 
       C2-C1-H6=114.268        C1-C2-H7= 53.497        C3-C2-H7=142.269 
       C2-C3-H8=118.071        C4-C3-H8=123.0433       C2-C1-N9= 87.394 
       H6-C1-N9= 26.9401      C2-C1-N10= 26.5859      H6-C1-N10=140.8417
      N9-C1-N10=113.979       C2-C1-O11=148.899       H6-C1-O11= 96.8176
      N9-C1-O11=123.707      N10-C1-O11=122.3136      C1-C2-O12=145.9032
      C3-C2-O12=125.316       H7-C2-O12= 92.4063
 Symmetry turned off by external request.
 Stoichiometry    C4H4N2O2
 Framework group  C1[X(C4H4N2O2)]
 Deg. of freedom   30
 Full point group                 C1      NOp   1
 Rotational constants (GHZ):      3.9327115      2.0604097      1.3521076
 Isotopes: C-12,C-12,C-12,C-12,H-1,H-1,H-1,H-1,N-14,N-14,O-16,O-16
 Leave Link  202 at Thu Mar  6 15:59:08 1997, MaxMem=    4000000 cpu:       0.1
 (Enter /cmsc/g94/l301.exe)
 Standard basis: 6-31G(d,p) (6D, 7F)
 Basis set in the form of general basis input:
  1 0
 S    6 1.00
  0.3047524880D+04  0.1834737130D-02
  0.4573695180D+03  0.1403732280D-01
  0.1039486850D+03  0.6884262220D-01
  0.2921015530D+02  0.2321844430D+00
  0.9286662960D+01  0.4679413480D+00
  0.3163926960D+01  0.3623119850D+00
 SP   3 1.00
  0.7868272350D+01 -0.1193324200D+00  0.6899906660D-01
  0.1881288540D+01 -0.1608541520D+00  0.3164239610D+00
  0.5442492580D+00  0.1143456440D+01  0.7443082910D+00
 SP   1 1.00
  0.1687144782D+00  0.1000000000D+01  0.1000000000D+01
 D    1 1.00
  0.8000000000D+00  0.1000000000D+01
 ****
  2 0
 S    6 1.00
  0.3047524880D+04  0.1834737130D-02
  0.4573695180D+03  0.1403732280D-01
  0.1039486850D+03  0.6884262220D-01
  0.2921015530D+02  0.2321844430D+00
  0.9286662960D+01  0.4679413480D+00
  0.3163926960D+01  0.3623119850D+00
 SP   3 1.00
  0.7868272350D+01 -0.1193324200D+00  0.6899906660D-01
  0.1881288540D+01 -0.1608541520D+00  0.3164239610D+00
  0.5442492580D+00  0.1143456440D+01  0.7443082910D+00
 SP   1 1.00
  0.1687144782D+00  0.1000000000D+01  0.1000000000D+01
 D    1 1.00
  0.8000000000D+00  0.1000000000D+01
 ****
  3 0
 S    6 1.00
  0.3047524880D+04  0.1834737130D-02
  0.4573695180D+03  0.1403732280D-01
  0.1039486850D+03  0.6884262220D-01
  0.2921015530D+02  0.2321844430D+00
  0.9286662960D+01  0.4679413480D+00
  0.3163926960D+01  0.3623119850D+00
 SP   3 1.00
  0.7868272350D+01 -0.1193324200D+00  0.6899906660D-01
  0.1881288540D+01 -0.1608541520D+00  0.3164239610D+00
  0.5442492580D+00  0.1143456440D+01  0.7443082910D+00
 SP   1 1.00
  0.1687144782D+00  0.1000000000D+01  0.1000000000D+01
 D    1 1.00
  0.8000000000D+00  0.1000000000D+01
 ****
  4 0
 S    6 1.00
  0.3047524880D+04  0.1834737130D-02
  0.4573695180D+03  0.1403732280D-01
  0.1039486850D+03  0.6884262220D-01
  0.2921015530D+02  0.2321844430D+00
  0.9286662960D+01  0.4679413480D+00
  0.3163926960D+01  0.3623119850D+00
 SP   3 1.00
  0.7868272350D+01 -0.1193324200D+00  0.6899906660D-01
  0.1881288540D+01 -0.1608541520D+00  0.3164239610D+00
  0.5442492580D+00  0.1143456440D+01  0.7443082910D+00
 SP   1 1.00
  0.1687144782D+00  0.1000000000D+01  0.1000000000D+01
 D    1 1.00
  0.8000000000D+00  0.1000000000D+01
 ****
  5 0
 S    3 1.00
  0.1873113696D+02  0.3349460434D-01
  0.2825394365D+01  0.2347269535D+00
  0.6401216923D+00  0.8137573262D+00
 S    1 1.00
  0.1612777588D+00  0.1000000000D+01
 P    1 1.00
  0.1100000000D+01  0.1000000000D+01
 ****
  6 0
 S    3 1.00
  0.1873113696D+02  0.3349460434D-01
  0.2825394365D+01  0.2347269535D+00
  0.6401216923D+00  0.8137573262D+00
 S    1 1.00
  0.1612777588D+00  0.1000000000D+01
 P    1 1.00
  0.1100000000D+01  0.1000000000D+01
 ****
  7 0
 S    3 1.00
  0.1873113696D+02  0.3349460434D-01
  0.2825394365D+01  0.2347269535D+00
  0.6401216923D+00  0.8137573262D+00
 S    1 1.00
  0.1612777588D+00  0.1000000000D+01
 P    1 1.00
  0.1100000000D+01  0.1000000000D+01
 ****
  8 0
 S    3 1.00
  0.1873113696D+02  0.3349460434D-01
  0.2825394365D+01  0.2347269535D+00
  0.6401216923D+00  0.8137573262D+00
 S    1 1.00
  0.1612777588D+00  0.1000000000D+01
 P    1 1.00
  0.1100000000D+01  0.1000000000D+01
 ****
  9 0
 S    6 1.00
  0.4173511460D+04  0.1834772160D-02
  0.6274579110D+03  0.1399462700D-01
  0.1429020930D+03  0.6858655180D-01
  0.4023432930D+02  0.2322408730D+00
  0.1282021290D+02  0.4690699480D+00
  0.4390437010D+01  0.3604551990D+00
 SP   3 1.00
  0.1162636186D+02 -0.1149611820D+00  0.6757974390D-01
  0.2716279807D+01 -0.1691174790D+00  0.3239072960D+00
  0.7722183966D+00  0.1145851950D+01  0.7408951400D+00
 SP   1 1.00
  0.2120314975D+00  0.1000000000D+01  0.1000000000D+01
 D    1 1.00
  0.8000000000D+00  0.1000000000D+01
 ****
 10 0
 S    6 1.00
  0.4173511460D+04  0.1834772160D-02
  0.6274579110D+03  0.1399462700D-01
  0.1429020930D+03  0.6858655180D-01
  0.4023432930D+02  0.2322408730D+00
  0.1282021290D+02  0.4690699480D+00
  0.4390437010D+01  0.3604551990D+00
 SP   3 1.00
  0.1162636186D+02 -0.1149611820D+00  0.6757974390D-01
  0.2716279807D+01 -0.1691174790D+00  0.3239072960D+00
  0.7722183966D+00  0.1145851950D+01  0.7408951400D+00
 SP   1 1.00
  0.2120314975D+00  0.1000000000D+01  0.1000000000D+01
 D    1 1.00
  0.8000000000D+00  0.1000000000D+01
 ****
 11 0
 S    6 1.00
  0.5484671660D+04  0.1831074430D-02
  0.8252349460D+03  0.1395017220D-01
  0.1880469580D+03  0.6844507810D-01
  0.5296450000D+02  0.2327143360D+00
  0.1689757040D+02  0.4701928980D+00
  0.5799635340D+01  0.3585208530D+00
 SP   3 1.00
  0.1553961625D+02 -0.1107775490D+00  0.7087426820D-01
  0.3599933586D+01 -0.1480262620D+00  0.3397528390D+00
  0.1013761750D+01  0.1130767010D+01  0.7271585770D+00
 SP   1 1.00
  0.2700058226D+00  0.1000000000D+01  0.1000000000D+01
 D    1 1.00
  0.8000000000D+00  0.1000000000D+01
 ****
 12 0
 S    6 1.00
  0.5484671660D+04  0.1831074430D-02
  0.8252349460D+03  0.1395017220D-01
  0.1880469580D+03  0.6844507810D-01
  0.5296450000D+02  0.2327143360D+00
  0.1689757040D+02  0.4701928980D+00
  0.5799635340D+01  0.3585208530D+00
 SP   3 1.00
  0.1553961625D+02 -0.1107775490D+00  0.7087426820D-01
  0.3599933586D+01 -0.1480262620D+00  0.3397528390D+00
  0.1013761750D+01  0.1130767010D+01  0.7271585770D+00
 SP   1 1.00
  0.2700058226D+00  0.1000000000D+01  0.1000000000D+01
 D    1 1.00
  0.8000000000D+00  0.1000000000D+01
 ****

 Integral buffers will be    262144 words long.
 Raffenetti 1 integral format.
 Two-electron integral symmetry is turned off.
   140 basis functions      252 primitive gaussians
    29 alpha electrons       29 beta electrons
       nuclear repulsion energy       359.1760442912 Hartrees.
 Leave Link  301 at Thu Mar  6 15:59:08 1997, MaxMem=    4000000 cpu:       0.1
 (Enter /cmsc/g94/l302.exe)
 One-electron integrals computed using PRISM.
 The smallest eigenvalue of the overlap matrix is  1.127D-03
 Leave Link  302 at Thu Mar  6 15:59:10 1997, MaxMem=    4000000 cpu:       2.1
 (Enter /cmsc/g94/l303.exe)
 DipDrv:  MaxL=1.
 Leave Link  303 at Thu Mar  6 15:59:11 1997, MaxMem=    4000000 cpu:       0.5
 (Enter /cmsc/g94/l401.exe)
 Projected INDO Guess.
 Leave Link  401 at Thu Mar  6 15:59:13 1997, MaxMem=    4000000 cpu:       1.9
 (Enter /cmsc/g94/l502.exe)
 Warning!  Cutoffs for single-point calculations used.
 A Direct SCF calculation will be performed.
 Using DIIS extrapolation.
 IExCor= 0 DFT=F Ex=HF Corr=None ScaHFX= 1.0000 IRadAn=      0
 ScaDFX=  0.0000  0.0000  0.0000  0.0000
 Closed shell SCF:
 Requested convergence on RMS density matrix=1.00D-04 within  64 cycles.
 Requested convergence on MAX density matrix=1.00D-02.
 Requested convergence on             energy=5.00D-05.
 Two-electron integral symmetry not used.
 IEnd=     69127 IEndB=     69127 NGot=   4000000 MDV=   3954838
 LenX=   3954838
 Fock matrices will be formed incrementally for  20 cycles.
 
 Cycle   1  Pass 1:
 Symmetry not used in FoFDir.
 MinBra= 0 MaxBra= 2 MinRaf= 0 MaxRaf= 2.
 IRaf=       0 NMat=   1 IRICut=       1 DoRegI=T DoRafI=F ISym2E= 0 JSym2E=0.
 E=-0.769888127265382D+03
 DIIS: error= 3.23D-01 at cycle   1.
 RMSDP=9.56D-03 MaxDP=1.73D-01
 
 Cycle   2  Pass 1:
 RMSU=  9.13D-03    CP:  9.04D-01
 E=-0.771504449464502D+03 Delta-E=       -1.616322199120
 DIIS: error= 4.35D-02 at cycle   2.
 RMSDP=3.42D-03 MaxDP=9.87D-02
 
 Cycle   3  Pass 1:
 RMSU=  3.34D-03    CP:  9.00D-01  9.21D-01
 E=-0.771576682969435D+03 Delta-E=       -0.072233504933
 DIIS: error= 4.27D-02 at cycle   3.
 Coeff:-0.427D+00-0.573D+00
 RMSDP=1.87D-03 MaxDP=4.96D-02
 
 Cycle   4  Pass 1:
 RMSU=  9.63D-04    CP:  8.97D-01  1.03D+00  6.32D-01
 E=-0.771648285782889D+03 Delta-E=       -0.071602813454
 DIIS: error= 5.43D-03 at cycle   4.
 Coeff: 0.842D-01 0.520D-01-0.114D+01
 RMSDP=5.62D-04 MaxDP=1.37D-02
 
 Cycle   5  Pass 1:
 RMSU=  2.60D-04    CP:  8.94D-01  1.06D+00  6.83D-01  1.42D+00
 E=-0.771650736161233D+03 Delta-E=       -0.002450378344
 DIIS: error= 1.81D-03 at cycle   5.
 Coeff: 0.423D-01 0.519D-01-0.236D+00-0.858D+00
 RMSDP=1.93D-04 MaxDP=5.24D-03
 
 Cycle   6  Pass 1:
 RMSU=  8.05D-05    CP:  8.94D-01  1.06D+00  6.83D-01  1.59D+00  1.09D+00
 E=-0.771651038524245D+03 Delta-E=       -0.000302363012
 DIIS: error= 5.73D-04 at cycle   6.
 Coeff:-0.129D-01-0.491D-02 0.148D+00 0.576D-01-0.119D+01
 RMSDP=1.13D-04 MaxDP=2.55D-03
 
 Cycle   7  Pass 1:
 RMSU=  2.53D-05    CP:  8.94D-01  1.07D+00  6.84D-01  1.67D+00  1.30D+00
                    CP:  1.48D+00
 E=-0.771651097993007D+03 Delta-E=       -0.000059468762
 DIIS: error= 2.78D-04 at cycle   7.
 Coeff:-0.174D-02-0.508D-03-0.445D-02 0.658D-01 0.993D-01-0.116D+01
 RMSDP=3.51D-05 MaxDP=8.99D-04
 
 SCF Done:  E(RHF) =  -412.475053702     A.U. after    7 cycles
             Convg  =    0.3512D-04             -V/T =  2.0024
             S**2   =   0.0000
 KE= 4.114683495190D+02 PE=-1.686116185633D+03 EE= 5.029967381205D+02
 Leave Link  502 at Thu Mar  6 16:02:44 1997, MaxMem=    4000000 cpu:     193.8
 (Enter /cmsc/g94/l601.exe)
 Copying SCF densities to generalized density rwf, ISCF=0 IROHF=0.

 **********************************************************************

            Population analysis using the SCF density.

 **********************************************************************

 Alpha  occ. eigenvalues --  -20.55057 -20.53387 -15.65195 -15.63004 -11.41949
 Alpha  occ. eigenvalues --  -11.37346 -11.34148 -11.25321  -1.43719  -1.37773
 Alpha  occ. eigenvalues --   -1.31648  -1.24743  -1.09171  -0.93875  -0.90281
 Alpha  occ. eigenvalues --   -0.80951  -0.76785  -0.71703  -0.67061  -0.66809
 Alpha  occ. eigenvalues --   -0.64765  -0.60111  -0.59423  -0.56059  -0.52387
 Alpha  occ. eigenvalues --   -0.47572  -0.43601  -0.42320  -0.36397
 Alpha virt. eigenvalues --    0.10012   0.17640   0.18750   0.24995   0.25640
 Alpha virt. eigenvalues --    0.29791   0.32316   0.37733   0.41446   0.42435
 Alpha virt. eigenvalues --    0.44109   0.50698   0.52998   0.55612   0.66767
 Alpha virt. eigenvalues --    0.68769   0.72364   0.74229   0.77103   0.77806
 Alpha virt. eigenvalues --    0.80262   0.80709   0.86406   0.88599   0.89571
 Alpha virt. eigenvalues --    0.93065   0.97913   1.00132   1.01832   1.04381
 Alpha virt. eigenvalues --    1.05663   1.06725   1.09098   1.10049   1.12421
 Alpha virt. eigenvalues --    1.15446   1.22671   1.26141   1.29474   1.31466
 Alpha virt. eigenvalues --    1.33680   1.36685   1.38721   1.42721   1.44481
 Alpha virt. eigenvalues --    1.52756   1.55977   1.58645   1.61283   1.62779
 Alpha virt. eigenvalues --    1.63899   1.65222   1.68590   1.70799   1.81651
 Alpha virt. eigenvalues --    1.85994   1.99907   2.04994   2.07165   2.07952
 Alpha virt. eigenvalues --    2.10136   2.11415   2.14242   2.18331   2.22034
 Alpha virt. eigenvalues --    2.22348   2.23354   2.25699   2.26744   2.34711
 Alpha virt. eigenvalues --    2.42674   2.45172   2.49619   2.59616   2.61168
 Alpha virt. eigenvalues --    2.62032   2.65011   2.67040   2.70994   2.72348
 Alpha virt. eigenvalues --    2.73913   2.74801   2.75460   2.83247   2.88459
 Alpha virt. eigenvalues --    2.89185   2.93280   2.96433   2.97237   3.01717
 Alpha virt. eigenvalues --    3.15943   3.17315   3.19353   3.30250   3.33420
 Alpha virt. eigenvalues --    3.41463   3.48749   3.51331   3.58446   3.71008
 Alpha virt. eigenvalues --    3.81932   3.84281   4.23771   4.39427   4.42763
 Alpha virt. eigenvalues --    4.48791   4.63528   4.65299   4.88872   5.06690
 Alpha virt. eigenvalues --    5.17492
     Molecular Orbital Coefficients
                           1         2         3         4         5
                           O         O         O         O         O
     EIGENVALUES --   -20.55057 -20.53387 -15.65195 -15.63004 -11.41949
   1 1   C  1S         -0.00001   0.00001   0.00002   0.00001   0.99584
   2        2S          0.00050   0.00004   0.00021   0.00022   0.02616
   3        2PX         0.00004  -0.00002   0.00026  -0.00009   0.00043
   4        2PY         0.00000   0.00000   0.00000   0.00000   0.00001
   5        2PZ         0.00006   0.00003   0.00003   0.00023   0.00065
   6        3S         -0.00081  -0.00001   0.00175   0.00170  -0.00193
   7        3PX         0.00028  -0.00028   0.00203  -0.00025  -0.00221
   8        3PY         0.00000   0.00000  -0.00002   0.00000   0.00002
   9        3PZ         0.00040  -0.00016   0.00082   0.00207  -0.00352
  10        4XX        -0.00027   0.00002  -0.00014  -0.00011  -0.00088
  11        4YY        -0.00004   0.00001  -0.00006  -0.00007  -0.00237
  12        4ZZ        -0.00068   0.00002  -0.00005  -0.00014  -0.00063
  13        4XY         0.00000   0.00000   0.00000   0.00000  -0.00001
  14        4XZ        -0.00046  -0.00003   0.00004   0.00009   0.00033
  15        4YZ         0.00000   0.00000   0.00000   0.00000   0.00000
  16 2   C  1S          0.00001  -0.00001   0.00000   0.00001  -0.00039
  17        2S          0.00006   0.00052  -0.00003   0.00014  -0.00066
  18        2PX        -0.00001  -0.00003  -0.00001  -0.00009  -0.00001
  19        2PY         0.00000   0.00000   0.00000   0.00000   0.00000
  20        2PZ        -0.00003   0.00003  -0.00003  -0.00021   0.00011
  21        3S         -0.00028  -0.00032   0.00150   0.00201   0.00257
  22        3PX        -0.00036   0.00059   0.00071   0.00008   0.00416
  23        3PY         0.00000   0.00000   0.00001   0.00001   0.00002
  24        3PZ         0.00035  -0.00031  -0.00053  -0.00246  -0.00358
  25        4XX         0.00002  -0.00027   0.00002  -0.00010  -0.00007
  26        4YY         0.00002  -0.00006  -0.00001  -0.00008  -0.00023
  27        4ZZ         0.00002  -0.00053   0.00001  -0.00010   0.00001
  28        4XY         0.00000   0.00000   0.00000   0.00000   0.00000
  29        4XZ         0.00003   0.00038   0.00000  -0.00005   0.00003
  30        4YZ         0.00000   0.00001   0.00000   0.00000   0.00000
  31 3   C  1S          0.00000   0.00000   0.00003   0.00002   0.00002
  32        2S         -0.00003   0.00000   0.00013   0.00007   0.00038
  33        2PX        -0.00001   0.00001  -0.00003   0.00005   0.00005
  34        2PY         0.00000   0.00000   0.00000   0.00000   0.00001
  35        2PZ         0.00000  -0.00001   0.00003  -0.00002   0.00007
  36        3S          0.00066  -0.00018  -0.00214  -0.00157  -0.00779
  37        3PX        -0.00015   0.00022   0.00096   0.00007   0.00180
  38        3PY         0.00000   0.00000  -0.00001  -0.00001  -0.00003
  39        3PZ        -0.00031  -0.00006   0.00113   0.00159   0.00382
  40        4XX        -0.00001   0.00001   0.00004   0.00001  -0.00004
  41        4YY         0.00000  -0.00002   0.00003   0.00002   0.00008
  42        4ZZ         0.00001   0.00001  -0.00002   0.00001  -0.00012
  43        4XY         0.00000   0.00000   0.00000   0.00000   0.00000
  44        4XZ         0.00002   0.00010  -0.00001  -0.00003  -0.00006
  45        4YZ         0.00000   0.00000   0.00000   0.00000   0.00000
  46 4   C  1S          0.00001   0.00000   0.00002   0.00000  -0.00021
  47        2S          0.00005   0.00003   0.00018  -0.00001  -0.00060
  48        2PX        -0.00002  -0.00001  -0.00009  -0.00002   0.00013
  49        2PY         0.00000   0.00000   0.00000   0.00000  -0.00001
  50        2PZ        -0.00002   0.00002  -0.00018  -0.00001   0.00003
  51        3S         -0.00046  -0.00012   0.00266   0.00177   0.00464
  52        3PX         0.00035   0.00004  -0.00173  -0.00058  -0.00433
  53        3PY         0.00000   0.00000   0.00000   0.00001   0.00006
  54        3PZ        -0.00012  -0.00012  -0.00040   0.00037   0.00181
  55        4XX        -0.00004  -0.00003  -0.00003   0.00002   0.00015
  56        4YY         0.00002   0.00000  -0.00008   0.00000  -0.00021
  57        4ZZ         0.00004   0.00003  -0.00015   0.00003   0.00010
  58        4XY         0.00000   0.00000   0.00000   0.00000   0.00000
  59        4XZ         0.00001   0.00001  -0.00006  -0.00001   0.00008
  60        4YZ         0.00000   0.00000   0.00000   0.00000   0.00000
  61 5   H  1S          0.00000   0.00001   0.00000  -0.00002   0.00022
  62        2S         -0.00011  -0.00001   0.00040   0.00008   0.00155
  63        3PX        -0.00001  -0.00001   0.00003   0.00001   0.00002
  64        3PY         0.00000   0.00000   0.00000   0.00000   0.00000
  65        3PZ         0.00001   0.00000   0.00005  -0.00002  -0.00005
  66 6   H  1S         -0.00003   0.00000   0.00014  -0.00010   0.00003
  67        2S         -0.00001   0.00000  -0.00005  -0.00001  -0.00006
  68        3PX         0.00001   0.00000   0.00006   0.00000  -0.00021
  69        3PY         0.00000   0.00000  -0.00001   0.00000   0.00001
  70        3PZ        -0.00004   0.00000  -0.00010   0.00000   0.00011
  71 7   H  1S         -0.00003  -0.00004  -0.00010   0.00017  -0.00002
  72        2S         -0.00002  -0.00005  -0.00002   0.00000   0.00004
  73        3PX        -0.00005  -0.00004   0.00000  -0.00010   0.00019
  74        3PY         0.00000   0.00000   0.00000  -0.00001   0.00000
  75        3PZ        -0.00001   0.00000   0.00001   0.00000  -0.00011
  76 8   H  1S          0.00000  -0.00001  -0.00005  -0.00008  -0.00006
  77        2S          0.00007  -0.00003  -0.00037  -0.00037  -0.00096
  78        3PX         0.00000  -0.00001  -0.00002   0.00001  -0.00002
  79        3PY         0.00000   0.00000   0.00000   0.00000   0.00000
  80        3PZ         0.00001   0.00004   0.00000  -0.00002  -0.00005
  81 9   N  1S         -0.00001   0.00000   0.99496   0.00049  -0.00025
  82        2S         -0.00006  -0.00001   0.02561   0.00002   0.00040
  83        2PX         0.00003   0.00000  -0.00009   0.00005  -0.00011
  84        2PY         0.00000   0.00000  -0.00006   0.00000   0.00001
  85        2PZ         0.00000   0.00000   0.00021   0.00002   0.00003
  86        3S          0.00032   0.00016  -0.00480  -0.00066  -0.00054
  87        3PX        -0.00014  -0.00011   0.00102   0.00001   0.00154
  88        3PY         0.00000   0.00000   0.00002   0.00000  -0.00003
  89        3PZ         0.00009  -0.00001  -0.00131  -0.00077  -0.00031
  90        4XX         0.00000  -0.00001  -0.00341   0.00004  -0.00071
  91        4YY        -0.00006   0.00000  -0.00334  -0.00002   0.00016
  92        4ZZ        -0.00001   0.00000  -0.00334   0.00005  -0.00030
  93        4XY         0.00000   0.00000   0.00000   0.00000   0.00001
  94        4XZ        -0.00013  -0.00002  -0.00002   0.00002  -0.00002
  95        4YZ         0.00000   0.00000   0.00000   0.00000  -0.00001
  96 10  N  1S         -0.00001  -0.00001  -0.00046   0.99497  -0.00025
  97        2S         -0.00006  -0.00004   0.00001   0.02565   0.00034
  98        2PX        -0.00002  -0.00001   0.00000   0.00023   0.00010
  99        2PY         0.00000   0.00000   0.00000  -0.00004   0.00000
 100        2PZ         0.00004  -0.00005   0.00005  -0.00010  -0.00010
 101        3S          0.00035   0.00024  -0.00072  -0.00524  -0.00037
 102        3PX         0.00015   0.00002  -0.00073  -0.00160  -0.00102
 103        3PY         0.00000   0.00000   0.00000   0.00004   0.00000
 104        3PZ        -0.00013   0.00024  -0.00037   0.00004   0.00152
 105        4XX         0.00009   0.00007   0.00004  -0.00334  -0.00038
 106        4YY        -0.00006  -0.00006  -0.00001  -0.00333   0.00012
 107        4ZZ        -0.00011  -0.00010   0.00006  -0.00339  -0.00057
 108        4XY         0.00000   0.00000   0.00000   0.00000   0.00000
 109        4XZ        -0.00007   0.00005   0.00002  -0.00001   0.00022
 110        4YZ         0.00000   0.00000   0.00000   0.00000  -0.00001
 111 11  O  1S          0.99468   0.00001  -0.00003  -0.00003  -0.00020
 112        2S          0.02102   0.00005  -0.00017  -0.00017   0.00098
 113        2PX         0.00087   0.00000  -0.00001  -0.00002   0.00019
 114        2PY        -0.00001   0.00000   0.00000   0.00000   0.00000
 115        2PZ         0.00141   0.00001  -0.00003  -0.00002   0.00031
 116        3S          0.00466  -0.00029   0.00106   0.00099  -0.00556
 117        3PX         0.00001  -0.00002  -0.00020   0.00039  -0.00120
 118        3PY         0.00000   0.00000   0.00000   0.00000   0.00000
 119        3PZ         0.00003  -0.00007   0.00034  -0.00002  -0.00200
 120        4XX        -0.00385   0.00003  -0.00015  -0.00002   0.00040
 121        4YY        -0.00411   0.00003  -0.00012  -0.00012   0.00058
 122        4ZZ        -0.00368   0.00002  -0.00004  -0.00015   0.00035
 123        4XY         0.00000   0.00000   0.00000   0.00000   0.00000
 124        4XZ         0.00019   0.00000  -0.00004   0.00003  -0.00005
 125        4YZ         0.00000   0.00000   0.00000   0.00000   0.00000
 126 12  O  1S          0.00001   0.99470  -0.00001  -0.00003  -0.00012
 127        2S          0.00006   0.02093  -0.00005  -0.00019  -0.00055
 128        2PX         0.00000   0.00083   0.00000  -0.00002  -0.00001
 129        2PY         0.00000   0.00001   0.00000   0.00000   0.00000
 130        2PZ        -0.00001  -0.00127   0.00001   0.00002   0.00001
 131        3S         -0.00038   0.00446   0.00031   0.00123   0.00400
 132        3PX        -0.00003  -0.00008  -0.00004   0.00038   0.00031
 133        3PY         0.00000   0.00000   0.00000   0.00000   0.00001
 134        3PZ         0.00008   0.00005  -0.00007  -0.00003  -0.00080
 135        4XX         0.00004  -0.00382  -0.00004  -0.00005  -0.00038
 136        4YY         0.00004  -0.00409  -0.00004  -0.00013  -0.00029
 137        4ZZ         0.00003  -0.00373  -0.00002  -0.00016  -0.00031
 138        4XY         0.00000   0.00000   0.00000   0.00000   0.00000
 139        4XZ         0.00000  -0.00011   0.00001  -0.00002  -0.00002
 140        4YZ         0.00000   0.00000   0.00000   0.00000   0.00000
                           6         7         8         9        10
                           O         O         O         O         O
     EIGENVALUES --   -11.37346 -11.34148 -11.25321  -1.43719  -1.37773
   1 1   C  1S          0.00017   0.00008   0.00002  -0.13047   0.03309
   2        2S         -0.00055  -0.00042  -0.00004   0.25966  -0.06165
   3        2PX         0.00008  -0.00001   0.00003  -0.03858   0.02670
   4        2PY         0.00000   0.00000   0.00000   0.00004  -0.00003
   5        2PZ        -0.00016   0.00002   0.00001  -0.06814   0.09142
   6        3S         -0.00045   0.00101   0.00079   0.01282  -0.02093
   7        3PX         0.00444   0.00008   0.00079   0.00190  -0.01586
   8        3PY        -0.00004   0.00003   0.00000  -0.00038   0.00018
   9        3PZ         0.00174   0.00468   0.00132   0.00427  -0.02906
  10        4XX        -0.00008   0.00017  -0.00001   0.00193   0.00067
  11        4YY        -0.00022  -0.00013  -0.00003  -0.02020   0.00632
  12        4ZZ        -0.00001   0.00006  -0.00001   0.01430  -0.00204
  13        4XY         0.00000   0.00000   0.00000  -0.00016   0.00003
  14        4XZ        -0.00003   0.00008   0.00002   0.01425  -0.01150
  15        4YZ         0.00000   0.00000   0.00000   0.00001   0.00004
  16 2   C  1S          0.99588  -0.00011  -0.00411  -0.04311  -0.11892
  17        2S          0.02664  -0.00021  -0.00016   0.08852   0.23072
  18        2PX        -0.00043  -0.00001  -0.00012  -0.02117  -0.08573
  19        2PY         0.00000   0.00000   0.00000  -0.00012  -0.00098
  20        2PZ        -0.00077  -0.00004  -0.00005  -0.01315   0.07978
  21        3S         -0.00681   0.00124   0.00630  -0.01559   0.04710
  22        3PX        -0.00734   0.00142   0.00228  -0.00948   0.03359
  23        3PY        -0.00002   0.00001   0.00000  -0.00018   0.00011
  24        3PZ         0.00299  -0.00027  -0.00140   0.02514  -0.02368
  25        4XX        -0.00095   0.00016  -0.00059  -0.00063  -0.00039
  26        4YY        -0.00227  -0.00002  -0.00014  -0.00549  -0.01793
  27        4ZZ        -0.00061   0.00007  -0.00031   0.00732   0.01513
  28        4XY         0.00001   0.00000   0.00000   0.00003   0.00017
  29        4XZ        -0.00024  -0.00012  -0.00003  -0.00139  -0.01608
  30        4YZ        -0.00001   0.00000   0.00000  -0.00008  -0.00032
  31 3   C  1S          0.00364   0.00874   0.99554  -0.01703  -0.02556
  32        2S         -0.00003   0.00007   0.02843   0.02917   0.04803
  33        2PX         0.00009  -0.00011  -0.00027  -0.01138  -0.03255
  34        2PY         0.00000   0.00000   0.00000  -0.00009  -0.00009
  35        2PZ         0.00004   0.00011  -0.00050  -0.01389  -0.00043
  36        3S          0.00638   0.00292  -0.01572   0.06533   0.01258
  37        3PX        -0.00359   0.00234   0.00207  -0.01313  -0.00176
  38        3PY         0.00002  -0.00002   0.00001   0.00026  -0.00008
  39        3PZ        -0.00081  -0.00127   0.00333  -0.03211   0.00405
  40        4XX        -0.00057  -0.00037  -0.00178   0.00266   0.00761
  41        4YY        -0.00018  -0.00005  -0.00243  -0.00186  -0.00239
  42        4ZZ        -0.00033  -0.00031  -0.00161   0.00168  -0.00099
  43        4XY         0.00000   0.00000  -0.00001   0.00000   0.00001
  44        4XZ         0.00000  -0.00008  -0.00012  -0.00083  -0.00196
  45        4YZ         0.00000   0.00001  -0.00001   0.00001   0.00000
  46 4   C  1S          0.00004   0.99565  -0.00938  -0.02926  -0.00785
  47        2S         -0.00024   0.02713  -0.00053   0.06045   0.01594
  48        2PX         0.00005  -0.00060   0.00009  -0.02758  -0.00837
  49        2PY         0.00000   0.00000   0.00000  -0.00011   0.00002
  50        2PZ        -0.00009  -0.00107  -0.00022  -0.02365   0.00827
  51        3S         -0.00042  -0.00840   0.00719  -0.02889   0.00321
  52        3PX        -0.00021  -0.00027  -0.00296   0.03923   0.00517
  53        3PY         0.00000   0.00003   0.00002  -0.00050  -0.00005
  54        3PZ         0.00091  -0.00271   0.00124  -0.00735   0.00336
  55        4XX         0.00015  -0.00140  -0.00039   0.00069   0.00040
  56        4YY        -0.00007  -0.00248  -0.00009  -0.00276  -0.00049
  57        4ZZ         0.00005  -0.00109  -0.00041   0.00332  -0.00002
  58        4XY         0.00000  -0.00002   0.00001   0.00000  -0.00001
  59        4XZ        -0.00007   0.00006   0.00005   0.00419  -0.00101
  60        4YZ         0.00000   0.00001   0.00000   0.00005   0.00000
  61 5   H  1S          0.00000  -0.00030   0.00007   0.00727   0.00148
  62        2S          0.00036   0.00175   0.00054  -0.01312  -0.00270
  63        3PX         0.00002   0.00025  -0.00012  -0.00124  -0.00012
  64        3PY         0.00000  -0.00001   0.00001   0.00000   0.00000
  65        3PZ        -0.00001   0.00014   0.00005  -0.00019   0.00001
  66 6   H  1S          0.00001  -0.00019  -0.00011   0.03794  -0.00607
  67        2S         -0.00012  -0.00039  -0.00007   0.00601  -0.00105
  68        3PX        -0.00006   0.00007   0.00007  -0.00310   0.00089
  69        3PY         0.00000   0.00000  -0.00001   0.00038  -0.00006
  70        3PZ        -0.00001   0.00023  -0.00003   0.00491  -0.00076
  71 7   H  1S          0.00012  -0.00007  -0.00008   0.03653   0.03031
  72        2S          0.00011  -0.00014   0.00001   0.00526   0.00385
  73        3PX         0.00020  -0.00001  -0.00004   0.00570   0.00465
  74        3PY         0.00000   0.00000   0.00000   0.00015   0.00011
  75        3PZ         0.00017  -0.00005   0.00003  -0.00062   0.00125
  76 8   H  1S          0.00001  -0.00006  -0.00033   0.00472   0.00914
  77        2S          0.00056  -0.00024   0.00085   0.00750   0.00049
  78        3PX        -0.00001  -0.00007   0.00012  -0.00026  -0.00096
  79        3PY         0.00000   0.00000  -0.00001   0.00003   0.00003
  80        3PZ        -0.00012  -0.00010   0.00017  -0.00019  -0.00104
  81 9   N  1S          0.00005  -0.00026   0.00008  -0.07758   0.00551
  82        2S          0.00021   0.00046   0.00017   0.15650  -0.01304
  83        2PX        -0.00003   0.00004   0.00001  -0.04238   0.00900
  84        2PY         0.00000   0.00001   0.00000  -0.00080   0.00009
  85        2PZ        -0.00004   0.00016   0.00003   0.00744   0.01340
  86        3S         -0.00274  -0.00125  -0.00294   0.17412   0.00545
  87        3PX         0.00178  -0.00118   0.00028  -0.03023   0.00223
  88        3PY         0.00000  -0.00005  -0.00001   0.00009   0.00004
  89        3PZ        -0.00005  -0.00314  -0.00125   0.02063   0.01208
  90        4XX         0.00005  -0.00042   0.00016   0.01013  -0.00252
  91        4YY         0.00007   0.00018   0.00010  -0.00557   0.00002
  92        4ZZ         0.00007  -0.00067   0.00033   0.00081   0.00059
  93        4XY         0.00000   0.00001   0.00000  -0.00006   0.00001
  94        4XZ         0.00007  -0.00032  -0.00002   0.00329  -0.00121
  95        4YZ         0.00000  -0.00001   0.00001   0.00013  -0.00002
  96 10  N  1S         -0.00028   0.00007   0.00007  -0.07662  -0.05789
  97        2S          0.00031   0.00028   0.00011   0.15437   0.11805
  98        2PX         0.00005   0.00002   0.00001   0.02642   0.01458
  99        2PY         0.00000   0.00000   0.00000  -0.00095  -0.00081
 100        2PZ         0.00020  -0.00003   0.00001  -0.02627   0.05546
 101        3S          0.00044  -0.00344  -0.00243   0.17157   0.12512
 102        3PX         0.00003  -0.00138  -0.00092   0.03172   0.01471
 103        3PY         0.00002   0.00000   0.00001  -0.00036  -0.00052
 104        3PZ        -0.00381   0.00140  -0.00027  -0.01108   0.02809
 105        4XX        -0.00042   0.00014   0.00025   0.00006   0.00057
 106        4YY         0.00009   0.00013   0.00008  -0.00540  -0.00374
 107        4ZZ        -0.00077   0.00012   0.00018   0.01139   0.00663
 108        4XY         0.00000   0.00000   0.00000  -0.00003  -0.00002
 109        4XZ        -0.00026   0.00006   0.00005  -0.00277   0.00455
 110        4YZ         0.00001   0.00000   0.00000   0.00006  -0.00013
 111 11  O  1S         -0.00012  -0.00011  -0.00004  -0.14052   0.07777
 112        2S         -0.00055  -0.00050  -0.00018   0.30538  -0.16580
 113        2PX         0.00000  -0.00002  -0.00001   0.05690  -0.02962
 114        2PY         0.00000   0.00000   0.00000  -0.00024   0.00011
 115        2PZ        -0.00001  -0.00003  -0.00001   0.09377  -0.04306
 116        3S          0.00388   0.00352   0.00124   0.28491  -0.17932
 117        3PX         0.00009   0.00066   0.00014   0.02567  -0.01558
 118        3PY         0.00000  -0.00001   0.00000  -0.00014   0.00011
 119        3PZ         0.00098   0.00041   0.00022   0.04149  -0.02067
 120        4XX        -0.00040  -0.00029  -0.00011   0.00170  -0.00037
 121        4YY        -0.00030  -0.00027  -0.00011  -0.00273   0.00275
 122        4ZZ        -0.00028  -0.00038  -0.00011   0.01005  -0.00298
 123        4XY         0.00000   0.00000   0.00000  -0.00004   0.00003
 124        4XZ         0.00002   0.00002   0.00001   0.00945  -0.00473
 125        4YZ         0.00000   0.00000   0.00000  -0.00004   0.00003
 126 12  O  1S         -0.00012  -0.00002   0.00000  -0.03353  -0.16137
 127        2S          0.00107  -0.00011  -0.00007   0.07580   0.34949
 128        2PX         0.00012  -0.00002   0.00000   0.01288   0.05981
 129        2PY         0.00000   0.00000   0.00000   0.00019   0.00084
 130        2PZ        -0.00025   0.00002  -0.00002  -0.02430  -0.09623
 131        3S         -0.00609   0.00064   0.00021   0.05436   0.35443
 132        3PX        -0.00071   0.00000  -0.00010   0.00336   0.02782
 133        3PY        -0.00003   0.00000   0.00000   0.00007   0.00043
 134        3PZ         0.00243  -0.00008  -0.00003  -0.01055  -0.04990
 135        4XX         0.00055  -0.00006   0.00006   0.00090   0.00090
 136        4YY         0.00068  -0.00006  -0.00007   0.00016  -0.00419
 137        4ZZ         0.00015  -0.00012   0.00004   0.00413   0.00986
 138        4XY         0.00000   0.00000   0.00000   0.00001   0.00009
 139        4XZ         0.00011   0.00003  -0.00002  -0.00229  -0.01018
 140        4YZ         0.00001   0.00000   0.00000  -0.00004  -0.00014
                          11        12        13        14        15
                           O         O         O         O         O
     EIGENVALUES --    -1.31648  -1.24743  -1.09171  -0.93875  -0.90281
   1 1   C  1S         -0.00470  -0.01680   0.04094   0.06278   0.08771
   2        2S          0.01324   0.03592  -0.08842  -0.14214  -0.19702
   3        2PX         0.14406  -0.08255  -0.08195  -0.17090   0.05021
   4        2PY        -0.00074   0.00080   0.00060   0.00046  -0.00202
   5        2PZ         0.13050   0.13907  -0.05667  -0.01649  -0.17632
   6        3S         -0.03081  -0.00585  -0.03185  -0.05426  -0.08697
   7        3PX        -0.02679   0.01334  -0.00233   0.00388  -0.03301
   8        3PY         0.00004  -0.00018  -0.00005   0.00035   0.00063
   9        3PZ        -0.02667  -0.01802  -0.02043  -0.02746  -0.02756
  10        4XX         0.01799  -0.01052  -0.01210  -0.01092  -0.00199
  11        4YY         0.00085  -0.00169   0.00450   0.00665   0.00919
  12        4ZZ        -0.01173   0.01479   0.00492   0.00491  -0.00428
  13        4XY        -0.00017   0.00008   0.00014   0.00009  -0.00006
  14        4XZ        -0.01269  -0.01667   0.00924  -0.00005   0.00848
  15        4YZ         0.00006   0.00012  -0.00008  -0.00010  -0.00016
  16 2   C  1S          0.01174  -0.01623  -0.04821   0.05422  -0.09326
  17        2S         -0.02131   0.03582   0.10091  -0.11724   0.20276
  18        2PX         0.04187   0.00445   0.13359  -0.15477  -0.02131
  19        2PY         0.00053   0.00109   0.00030  -0.00038   0.00130
  20        2PZ        -0.07426  -0.17259  -0.04037   0.00593  -0.15279
  21        3S         -0.04095  -0.00470   0.05331  -0.08820   0.12353
  22        3PX        -0.01429   0.01407   0.02518  -0.04079   0.05607
  23        3PY        -0.00027  -0.00015   0.00012  -0.00010   0.00009
  24        3PZ         0.02116   0.03694  -0.02730   0.00853  -0.02059
  25        4XX         0.00141  -0.00133   0.01378  -0.00731   0.00456
  26        4YY         0.00232  -0.00125  -0.00423   0.00410  -0.00933
  27        4ZZ        -0.00140   0.00733  -0.00732   0.00353   0.00247
  28        4XY        -0.00009  -0.00014  -0.00005  -0.00003  -0.00008
  29        4XZ         0.00878   0.02240   0.00069   0.00332   0.01714
  30        4YZ         0.00009   0.00005   0.00002   0.00003  -0.00011
  31 3   C  1S         -0.02896   0.00211  -0.15336   0.06738   0.01403
  32        2S          0.04969  -0.00416   0.28795  -0.13129  -0.02314
  33        2PX         0.00847  -0.01771  -0.00018   0.11196  -0.11237
  34        2PY        -0.00021   0.00017  -0.00108   0.00001   0.00048
  35        2PZ        -0.04098   0.00238  -0.08209  -0.05099   0.04389
  36        3S          0.07235   0.00028   0.20640  -0.11189  -0.05709
  37        3PX        -0.01947   0.01474  -0.00611   0.00313   0.00328
  38        3PY         0.00031   0.00006  -0.00029   0.00045   0.00003
  39        3PZ        -0.03426  -0.02051  -0.00715  -0.01374   0.00148
  40        4XX        -0.00178   0.00197   0.00617  -0.01155   0.00875
  41        4YY        -0.00315   0.00000  -0.01176   0.00544   0.00090
  42        4ZZ         0.00511  -0.00245   0.00848   0.00426  -0.00738
  43        4XY        -0.00002  -0.00001  -0.00011   0.00009  -0.00003
  44        4XZ        -0.00100   0.00329  -0.00483  -0.00464   0.00689
  45        4YZ         0.00003   0.00001  -0.00009   0.00014   0.00007
  46 4   C  1S         -0.08343   0.03944  -0.11393  -0.10089   0.04532
  47        2S          0.16136  -0.07821   0.22643   0.20734  -0.09325
  48        2PX        -0.05936   0.01712  -0.04061   0.07256   0.00905
  49        2PY        -0.00048   0.00043  -0.00007  -0.00216  -0.00076
  50        2PZ        -0.06637   0.04974   0.12856  -0.12070  -0.07925
  51        3S          0.01538  -0.04146   0.15601   0.14654  -0.07878
  52        3PX         0.02901  -0.01144  -0.00356   0.03837  -0.01692
  53        3PY        -0.00038   0.00007  -0.00037  -0.00103   0.00038
  54        3PZ         0.00692  -0.01412   0.02368   0.00052  -0.02325
  55        4XX         0.00082   0.00106   0.00205   0.00110  -0.00360
  56        4YY        -0.01032   0.00463  -0.00935  -0.01041   0.00301
  57        4ZZ         0.01196  -0.00719   0.00528   0.00839   0.00343
  58        4XY        -0.00002   0.00003  -0.00023  -0.00038   0.00019
  59        4XZ         0.01001  -0.00614  -0.01407   0.00599   0.00204
  60        4YZ         0.00014  -0.00008   0.00006   0.00017   0.00012
  61 5   H  1S          0.03052  -0.01918   0.06044   0.11871  -0.03086
  62        2S         -0.00321   0.00134   0.01328   0.04234  -0.00502
  63        3PX        -0.00431   0.00245  -0.00589  -0.00985   0.00279
  64        3PY         0.00008  -0.00005   0.00015   0.00027  -0.00008
  65        3PZ        -0.00048   0.00062   0.00160  -0.00047  -0.00075
  66 6   H  1S          0.07761  -0.05964  -0.06305   0.01357   0.12115
  67        2S          0.00972  -0.00860  -0.00577   0.00417   0.03303
  68        3PX        -0.00439   0.00384   0.00466   0.00360  -0.00463
  69        3PY         0.00064  -0.00050  -0.00051   0.00008   0.00085
  70        3PZ         0.00989  -0.00727  -0.00638   0.00276   0.01108
  71 7   H  1S          0.00807   0.09723  -0.02791   0.10690   0.01875
  72        2S          0.00090   0.01115  -0.00178   0.02309   0.00316
  73        3PX         0.00090   0.01365  -0.00310   0.01149   0.00182
  74        3PY         0.00003   0.00033  -0.00009   0.00035   0.00005
  75        3PZ         0.00003  -0.00081   0.00057  -0.00014   0.00504
  76 8   H  1S          0.00705  -0.00286   0.07495  -0.04700  -0.01829
  77        2S          0.00940   0.00103   0.01532  -0.01081  -0.01069
  78        3PX         0.00000   0.00002  -0.00329   0.00341  -0.00034
  79        3PY         0.00003   0.00000   0.00016  -0.00011  -0.00005
  80        3PZ        -0.00055   0.00055  -0.00733   0.00325   0.00267
  81 9   N  1S         -0.14748   0.08369   0.05938   0.00211  -0.03888
  82        2S          0.29804  -0.17243  -0.12592  -0.00399   0.08201
  83        2PX         0.00285  -0.02477   0.07167   0.25700   0.12723
  84        2PY        -0.00229   0.00186   0.00214  -0.00146  -0.00684
  85        2PZ         0.05085   0.00061   0.09155   0.10491  -0.13000
  86        3S          0.35305  -0.19604  -0.15171  -0.01481   0.12268
  87        3PX        -0.01277  -0.00626   0.03082   0.13773   0.05681
  88        3PY        -0.00070   0.00082   0.00142  -0.00071  -0.00426
  89        3PZ         0.05227  -0.00427   0.04384   0.06027  -0.07858
  90        4XX         0.00421  -0.00149  -0.00744  -0.00980  -0.00595
  91        4YY        -0.01048   0.00484   0.00173   0.00047  -0.00126
  92        4ZZ         0.00676  -0.00458   0.00736   0.01140   0.00309
  93        4XY        -0.00021   0.00019   0.00010  -0.00034  -0.00042
  94        4XZ         0.00219  -0.00426   0.00538   0.00871  -0.00065
  95        4YZ         0.00031  -0.00029  -0.00042  -0.00006   0.00076
  96 10  N  1S         -0.03036  -0.16413   0.02515  -0.04491  -0.00813
  97        2S          0.05747   0.33360  -0.05457   0.09496   0.01752
  98        2PX         0.03000   0.02032   0.02276  -0.14928  -0.02067
  99        2PY        -0.00039  -0.00208   0.00061  -0.00168  -0.00056
 100        2PZ        -0.00666  -0.00462   0.05192   0.01058   0.32578
 101        3S          0.09578   0.40740  -0.06154   0.14162   0.02583
 102        3PX         0.03429   0.03893   0.00769  -0.07351  -0.01160
 103        3PY        -0.00021  -0.00122   0.00033  -0.00119  -0.00055
 104        3PZ         0.00145  -0.00049   0.01490  -0.00900   0.17953
 105        4XX         0.00228   0.00324  -0.00037  -0.00053   0.00146
 106        4YY        -0.00314  -0.01057   0.00030  -0.00152  -0.00020
 107        4ZZ        -0.00263   0.00628  -0.00113  -0.00162  -0.00144
 108        4XY        -0.00006   0.00010  -0.00009   0.00043   0.00004
 109        4XZ        -0.00172   0.00041   0.00646   0.00050   0.02013
 110        4YZ         0.00003   0.00002  -0.00009   0.00000  -0.00044
 111 11  O  1S          0.10755   0.03548  -0.03938  -0.02888  -0.04249
 112        2S         -0.23193  -0.07695   0.08773   0.06616   0.09837
 113        2PX        -0.02391  -0.02674  -0.00989  -0.05438   0.01827
 114        2PY         0.00002   0.00017   0.00017   0.00014  -0.00081
 115        2PZ        -0.05457   0.00010   0.00121   0.00088  -0.07178
 116        3S         -0.24344  -0.08142   0.09047   0.07200   0.10627
 117        3PX        -0.00859  -0.01629  -0.00641  -0.03289   0.01029
 118        3PY         0.00011   0.00017   0.00012  -0.00006  -0.00071
 119        3PZ        -0.02500   0.00330   0.00045  -0.00011  -0.04325
 120        4XX         0.00077  -0.00359  -0.00019  -0.00257   0.00515
 121        4YY         0.00318   0.00100  -0.00042   0.00032   0.00100
 122        4ZZ        -0.00586   0.00216   0.00147   0.00292  -0.00504
 123        4XY         0.00002   0.00005   0.00001   0.00001  -0.00011
 124        4XZ        -0.00359  -0.00289  -0.00080  -0.00393  -0.00121
 125        4YZ         0.00002   0.00002   0.00002  -0.00002  -0.00007
 126 12  O  1S          0.06177   0.08824   0.03493  -0.02204   0.05889
 127        2S         -0.13434  -0.19177  -0.08152   0.05130  -0.13465
 128        2PX        -0.02065  -0.03188   0.01442  -0.04394   0.00675
 129        2PY        -0.00030  -0.00029  -0.00010  -0.00005   0.00061
 130        2PZ         0.02954   0.02355   0.00850  -0.00782  -0.07024
 131        3S         -0.13874  -0.20850  -0.06727   0.05435  -0.15696
 132        3PX        -0.00928  -0.02036   0.00920  -0.02127   0.00082
 133        3PY        -0.00008  -0.00013   0.00006  -0.00009   0.00041
 134        3PZ         0.01386   0.00995  -0.00085  -0.00056  -0.03979
 135        4XX        -0.00078  -0.00258  -0.00003  -0.00216  -0.00306
 136        4YY         0.00155   0.00222  -0.00082   0.00046  -0.00103
 137        4ZZ        -0.00282  -0.00061  -0.00364   0.00289   0.00483
 138        4XY        -0.00003  -0.00005   0.00000  -0.00002   0.00003
 139        4XZ         0.00298   0.00397  -0.00099   0.00248  -0.00304
 140        4YZ         0.00004   0.00004   0.00003  -0.00001  -0.00007
                          16        17        18        19        20
                           O         O         O         O         O
     EIGENVALUES --    -0.80951  -0.76785  -0.71703  -0.67061  -0.66809
   1 1   C  1S          0.00482   0.01236  -0.03913  -0.02749   0.03757
   2        2S         -0.01452  -0.02794   0.09007   0.06690  -0.09063
   3        2PX         0.03685  -0.23151  -0.07359   0.01817  -0.02194
   4        2PY         0.00433   0.00081  -0.00114   0.21302   0.16229
   5        2PZ         0.04655   0.13018   0.04279  -0.10024   0.13069
   6        3S         -0.02921  -0.00930   0.06379   0.04664  -0.06434
   7        3PX        -0.01161  -0.02145   0.00303   0.01008  -0.01290
   8        3PY         0.00025   0.00032  -0.00060   0.08405   0.06479
   9        3PZ        -0.01556   0.01170   0.02214   0.00222  -0.00277
  10        4XX        -0.00616  -0.00994  -0.01728   0.00264  -0.00340
  11        4YY         0.00006   0.00127  -0.00356  -0.00246   0.00354
  12        4ZZ         0.00554   0.01060   0.01601  -0.00495   0.00631
  13        4XY         0.00035  -0.00016  -0.00043   0.00252   0.00117
  14        4XZ         0.01830  -0.00617  -0.00663   0.00780  -0.01161
  15        4YZ        -0.00004   0.00013   0.00033   0.00211   0.00200
  16 2   C  1S         -0.03198  -0.03142  -0.02916  -0.03280   0.04438
  17        2S          0.07084   0.07030   0.06672   0.07854  -0.10574
  18        2PX        -0.04989   0.22089  -0.04405  -0.01145   0.01558
  19        2PY         0.00223  -0.00041   0.00119   0.11048   0.08939
  20        2PZ        -0.10217   0.10553  -0.07901   0.10184  -0.13443
  21        3S          0.01193   0.07589   0.02223   0.06788  -0.09255
  22        3PX        -0.00688   0.04270  -0.01426   0.01589  -0.02128
  23        3PY        -0.00029   0.00022  -0.00024   0.04492   0.03578
  24        3PZ        -0.00344   0.00729   0.00276   0.00317  -0.00035
  25        4XX        -0.00907   0.00360  -0.01327   0.00157  -0.00203
  26        4YY        -0.00372  -0.00031  -0.00292  -0.00225   0.00322
  27        4ZZ         0.00944  -0.00522   0.01330  -0.00369   0.00477
  28        4XY        -0.00003   0.00006  -0.00017  -0.00296  -0.00254
  29        4XZ        -0.00205  -0.00597   0.00071  -0.00089   0.00213
  30        4YZ        -0.00022   0.00004  -0.00018  -0.00639  -0.00493
  31 3   C  1S          0.07682  -0.00523   0.03366   0.01243  -0.01900
  32        2S         -0.14931   0.01304  -0.06822  -0.02239   0.03460
  33        2PX        -0.08611  -0.21113   0.01219  -0.04538   0.06571
  34        2PY         0.00343   0.00011  -0.00125   0.07144   0.05579
  35        2PZ        -0.10745   0.13524   0.02357   0.08844  -0.09780
  36        3S         -0.14092   0.02110  -0.03737  -0.01434   0.02818
  37        3PX        -0.04104  -0.06341  -0.00277  -0.00480   0.00997
  38        3PY         0.00209  -0.00017  -0.00005   0.04114   0.03190
  39        3PZ        -0.05741   0.04023  -0.01987   0.02964  -0.03453
  40        4XX        -0.00064   0.01283   0.00665   0.00516  -0.00648
  41        4YY         0.00420  -0.00101   0.00185   0.00083  -0.00126
  42        4ZZ        -0.00364  -0.00905  -0.00815  -0.00384   0.00507
  43        4XY         0.00021  -0.00002  -0.00011  -0.00209  -0.00171
  44        4XZ        -0.00118   0.00816  -0.00232   0.00023   0.00029
  45        4YZ         0.00017  -0.00002   0.00027  -0.00605  -0.00450
  46 4   C  1S         -0.02426   0.04036  -0.02369  -0.00742   0.01147
  47        2S          0.05344  -0.08176   0.04830   0.01829  -0.02759
  48        2PX        -0.10969  -0.03845   0.30802   0.08651  -0.09952
  49        2PY         0.00344  -0.00114  -0.00749   0.10455   0.08086
  50        2PZ        -0.14603  -0.22911   0.02668  -0.09716   0.12319
  51        3S         -0.00345  -0.10876   0.07630   0.01625  -0.02568
  52        3PX        -0.00528  -0.02155   0.13130   0.05544  -0.06773
  53        3PY         0.00002   0.00004  -0.00344   0.04732   0.03801
  54        3PZ        -0.02609  -0.03982  -0.02198  -0.04180   0.05253
  55        4XX         0.00564  -0.00476   0.01241   0.00699  -0.00989
  56        4YY        -0.00460   0.00033  -0.00014  -0.00080   0.00126
  57        4ZZ        -0.00192   0.00866  -0.01208  -0.00423   0.00627
  58        4XY        -0.00016   0.00028  -0.00049  -0.00888  -0.00612
  59        4XZ         0.01425   0.01084  -0.01284   0.00612  -0.00809
  60        4YZ        -0.00028   0.00012   0.00037  -0.00556  -0.00366
  61 5   H  1S         -0.02622  -0.05039   0.20270   0.06581  -0.08312
  62        2S         -0.02256  -0.02003   0.11964   0.03652  -0.04513
  63        3PX         0.00126   0.00369  -0.01116  -0.00333   0.00430
  64        3PY         0.00001  -0.00012   0.00027   0.00211   0.00138
  65        3PZ        -0.00196  -0.00302   0.00123  -0.00107   0.00135
  66 6   H  1S         -0.17382   0.06310   0.08382  -0.08035   0.10525
  67        2S         -0.05005   0.01981   0.03021  -0.04290   0.05754
  68        3PX         0.00770   0.00265  -0.00290   0.00229  -0.00239
  69        3PY        -0.00093   0.00031   0.00037   0.00601   0.00519
  70        3PZ        -0.01146   0.00711   0.00509  -0.00527   0.00592
  71 7   H  1S         -0.13495  -0.04049  -0.18905   0.04141  -0.05646
  72        2S         -0.03230  -0.01103  -0.07199   0.00302  -0.00390
  73        3PX        -0.01112  -0.00348  -0.01418   0.00231  -0.00364
  74        3PY        -0.00030  -0.00010  -0.00045   0.00556   0.00421
  75        3PZ         0.00231  -0.00500   0.00045   0.00018  -0.00023
  76 8   H  1S         -0.13397   0.01243  -0.01992   0.01753  -0.01092
  77        2S         -0.05688   0.00615  -0.00289   0.00725  -0.00056
  78        3PX         0.00431  -0.00323   0.00074  -0.00148   0.00162
  79        3PY        -0.00024   0.00002  -0.00005   0.00119   0.00090
  80        3PZ         0.00885   0.00144   0.00100   0.00008  -0.00060
  81 9   N  1S          0.01389  -0.01587   0.03011   0.00294  -0.00729
  82        2S         -0.03320   0.03548  -0.06568  -0.00425   0.01416
  83        2PX        -0.04061   0.26386   0.04874  -0.05596   0.08413
  84        2PY         0.01396  -0.00590  -0.01086   0.23783   0.16409
  85        2PZ         0.31361   0.04754  -0.19287   0.09020  -0.13740
  86        3S         -0.01870   0.04235  -0.11231  -0.01382   0.02921
  87        3PX        -0.04353   0.16289   0.03482  -0.04250   0.06352
  88        3PY         0.00935  -0.00405  -0.00713   0.16480   0.11415
  89        3PZ         0.19029   0.02219  -0.12029   0.05137  -0.08002
  90        4XX        -0.00044  -0.00875   0.00730   0.00646  -0.00758
  91        4YY        -0.00110   0.00007   0.00082   0.00041  -0.00094
  92        4ZZ         0.00024   0.00722  -0.00557  -0.00520   0.00702
  93        4XY         0.00046  -0.00051  -0.00035  -0.00683  -0.00579
  94        4XZ         0.00913  -0.00080  -0.00220   0.00811  -0.01044
  95        4YZ        -0.00122   0.00027   0.00041   0.00540   0.00530
  96 10  N  1S          0.02273   0.00395   0.00362   0.00999  -0.01641
  97        2S         -0.05396  -0.00968  -0.00793  -0.01880   0.03253
  98        2PX         0.21887   0.06251   0.31922  -0.09337   0.12121
  99        2PY         0.00479   0.00087   0.00414   0.20903   0.16620
 100        2PZ         0.09719  -0.21256  -0.00741   0.01981  -0.02565
 101        3S         -0.04193  -0.01297  -0.00036  -0.04837   0.07587
 102        3PX         0.14378   0.03748   0.20197  -0.07946   0.10505
 103        3PY         0.00346   0.00040   0.00293   0.14447   0.11539
 104        3PZ         0.05418  -0.12419  -0.00061   0.01442  -0.01775
 105        4XX        -0.00571  -0.00140  -0.01091   0.00085  -0.00073
 106        4YY        -0.00121  -0.00016   0.00030   0.00070  -0.00160
 107        4ZZ         0.00535   0.00236   0.01193   0.00168  -0.00159
 108        4XY        -0.00050  -0.00018  -0.00086   0.00909   0.00655
 109        4XZ         0.00440  -0.00450   0.00039   0.00035  -0.00048
 110        4YZ        -0.00022   0.00032   0.00007  -0.00303  -0.00213
 111 11  O  1S         -0.03170  -0.00615   0.02146   0.02850  -0.03754
 112        2S          0.07048   0.01451  -0.05096  -0.06605   0.08706
 113        2PX        -0.03201  -0.11816   0.04323   0.09586  -0.12462
 114        2PY         0.00246   0.00031  -0.00109   0.15867   0.12191
 115        2PZ        -0.05097   0.05135   0.07181   0.10908  -0.14702
 116        3S          0.10107   0.01898  -0.06947  -0.10776   0.14287
 117        3PX        -0.01365  -0.07105   0.02427   0.05742  -0.07446
 118        3PY         0.00180   0.00009  -0.00063   0.10002   0.07683
 119        3PZ        -0.02261   0.03069   0.04365   0.06197  -0.08373
 120        4XX        -0.00058  -0.00874  -0.00297   0.00291  -0.00356
 121        4YY         0.00062   0.00047  -0.00192  -0.00269   0.00330
 122        4ZZ        -0.00387   0.00796   0.00607   0.00414  -0.00554
 123        4XY         0.00018   0.00007  -0.00006   0.00837   0.00645
 124        4XZ        -0.00296  -0.00640   0.00299   0.00856  -0.01121
 125        4YZ         0.00029  -0.00002  -0.00010   0.01359   0.01048
 126 12  O  1S          0.00087   0.01143   0.00283   0.03797  -0.05043
 127        2S         -0.00310  -0.02686  -0.00586  -0.08626   0.11488
 128        2PX        -0.02188   0.11432   0.00354   0.11115  -0.14884
 129        2PY         0.00087  -0.00009   0.00078   0.07274   0.05583
 130        2PZ        -0.02402   0.04333  -0.02055  -0.11720   0.16098
 131        3S          0.00076  -0.03670  -0.01515  -0.14273   0.18877
 132        3PX        -0.01029   0.06586   0.00243   0.06442  -0.08682
 133        3PY         0.00074  -0.00007   0.00067   0.04424   0.03424
 134        3PZ        -0.01673   0.02391  -0.01349  -0.06597   0.09105
 135        4XX        -0.00347   0.00787  -0.00212   0.00350  -0.00455
 136        4YY        -0.00035  -0.00062  -0.00002  -0.00224   0.00329
 137        4ZZ         0.00296  -0.00646   0.00346   0.00571  -0.00782
 138        4XY         0.00005   0.00004   0.00003   0.00414   0.00314
 139        4XZ         0.00029  -0.00552  -0.00059  -0.00907   0.01231
 140        4YZ        -0.00012   0.00004  -0.00010  -0.00625  -0.00481
                          21        22        23        24        25
                           O         O         O         O         O
     EIGENVALUES --    -0.64765  -0.60111  -0.59423  -0.56059  -0.52387
   1 1   C  1S         -0.03305  -0.01161   0.00746  -0.00057  -0.00003
   2        2S          0.08341   0.02575  -0.02118   0.00110   0.00030
   3        2PX        -0.19066  -0.03220   0.12981   0.00413   0.00438
   4        2PY         0.00364  -0.00317  -0.00037  -0.11760   0.17785
   5        2PZ        -0.21565  -0.13836  -0.03410  -0.00425  -0.00330
   6        3S          0.03727   0.00770  -0.02914   0.00107  -0.00207
   7        3PX        -0.00378   0.02292   0.04055   0.00084   0.00266
   8        3PY         0.00158  -0.00187  -0.00040  -0.06214   0.10900
   9        3PZ         0.00611  -0.00660  -0.02955  -0.00189   0.00123
  10        4XX        -0.01038  -0.00876   0.00309   0.00016   0.00003
  11        4YY        -0.00405  -0.00214   0.00037   0.00008   0.00020
  12        4ZZ         0.00353   0.00538  -0.00464  -0.00041  -0.00023
  13        4XY        -0.00015   0.00054   0.00043  -0.01114  -0.02927
  14        4XZ         0.00864   0.01494  -0.00763   0.00102   0.00063
  15        4YZ         0.00012  -0.00039  -0.00022   0.01834  -0.01293
  16 2   C  1S         -0.00354   0.03643   0.00257   0.00074   0.00025
  17        2S          0.00949  -0.08444  -0.00948  -0.00153  -0.00070
  18        2PX         0.04417   0.03451   0.30518   0.00237   0.00214
  19        2PY         0.00480  -0.00629  -0.00082   0.28685  -0.04354
  20        2PZ        -0.06299  -0.22657  -0.06526   0.00070   0.00059
  21        3S          0.00514  -0.04958  -0.00036  -0.00122   0.00096
  22        3PX        -0.01202  -0.02599   0.06023   0.00072   0.00026
  23        3PY         0.00187  -0.00387  -0.00111   0.15489  -0.03328
  24        3PZ        -0.00617   0.00123   0.02602   0.00145  -0.00157
  25        4XX         0.00586   0.00196   0.00684   0.00025   0.00016
  26        4YY         0.00080   0.00376   0.00382  -0.00006   0.00016
  27        4ZZ        -0.00371   0.00230  -0.00773  -0.00008  -0.00032
  28        4XY        -0.00004   0.00007   0.00019  -0.01291  -0.00826
  29        4XZ        -0.00694   0.02387   0.00755   0.00053   0.00004
  30        4YZ        -0.00009   0.00007   0.00023   0.00596  -0.00955
  31 3   C  1S          0.00068  -0.01796   0.01534   0.00000   0.00072
  32        2S         -0.00216   0.03432  -0.03285   0.00006  -0.00135
  33        2PX        -0.06796   0.04135  -0.25655  -0.00158  -0.00355
  34        2PY         0.00551  -0.00700   0.00363   0.07444  -0.17416
  35        2PZ        -0.24212   0.26653  -0.07222   0.00888  -0.00077
  36        3S         -0.01033   0.09239   0.00240   0.00064  -0.00276
  37        3PX        -0.05463   0.04057  -0.14791  -0.00035  -0.00223
  38        3PY         0.00293  -0.00374   0.00293   0.04526  -0.11438
  39        3PZ        -0.10481   0.09436  -0.08794   0.00388   0.00094
  40        4XX        -0.00155  -0.00109   0.01676   0.00012  -0.00011
  41        4YY         0.00016  -0.00136  -0.00021  -0.00002   0.00008
  42        4ZZ         0.00027   0.00410  -0.01653   0.00002   0.00001
  43        4XY         0.00014  -0.00009   0.00024  -0.00974  -0.00253
  44        4XZ        -0.00699   0.01950  -0.00364   0.00032   0.00017
  45        4YZ         0.00021  -0.00035   0.00031   0.00050   0.01346
  46 4   C  1S         -0.01483   0.02415  -0.01179  -0.00001   0.00013
  47        2S          0.03567  -0.04995   0.01925  -0.00003  -0.00038
  48        2PX        -0.16306   0.01993   0.17179   0.00115  -0.00424
  49        2PY         0.00491  -0.00230  -0.00053  -0.05200  -0.24936
  50        2PZ         0.09441  -0.19865  -0.02862  -0.00795  -0.00204
  51        3S          0.02211  -0.08608   0.02959  -0.00102   0.00056
  52        3PX        -0.06290   0.00325   0.10527   0.00131  -0.00224
  53        3PY         0.00251  -0.00140  -0.00111  -0.02085  -0.15533
  54        3PZ         0.03841  -0.07223  -0.02797  -0.00213  -0.00044
  55        4XX        -0.00711  -0.00263   0.02003   0.00058   0.00067
  56        4YY         0.00032  -0.00084  -0.00112  -0.00006  -0.00011
  57        4ZZ         0.00445   0.00687  -0.01686  -0.00041  -0.00054
  58        4XY         0.00009   0.00018  -0.00069   0.00370   0.01381
  59        4XZ        -0.01001   0.01653  -0.00882   0.00090   0.00037
  60        4YZ         0.00023  -0.00052  -0.00013   0.01382   0.00315
  61 5   H  1S         -0.08945  -0.00793   0.13840   0.00228   0.00125
  62        2S         -0.06653  -0.00021   0.10163   0.00179   0.00049
  63        3PX         0.00462   0.00032  -0.00599  -0.00012  -0.00018
  64        3PY        -0.00010  -0.00003   0.00021  -0.00118  -0.00514
  65        3PZ         0.00092  -0.00235  -0.00055  -0.00011   0.00000
  66 6   H  1S          0.06304  -0.06871  -0.03222  -0.00328   0.00013
  67        2S          0.01982  -0.04658  -0.01016  -0.00186  -0.00177
  68        3PX         0.00015   0.00313  -0.00201  -0.00030  -0.00028
  69        3PY         0.00030  -0.00022   0.00009  -0.00766  -0.00833
  70        3PZ         0.00370  -0.00212  -0.00280   0.00037   0.00062
  71 7   H  1S         -0.00196  -0.02433   0.10833   0.00195   0.00207
  72        2S         -0.00742  -0.00541   0.06199   0.00129   0.00062
  73        3PX        -0.00041  -0.00094   0.00654  -0.00011  -0.00009
  74        3PY         0.00015  -0.00030   0.00012   0.00635   0.00525
  75        3PZ         0.00055   0.00366  -0.00083   0.00006   0.00010
  76 8   H  1S         -0.14744   0.18590  -0.14090   0.00374   0.00000
  77        2S         -0.09116   0.13980  -0.07301   0.00310  -0.00076
  78        3PX         0.00464  -0.00528   0.00069  -0.00012  -0.00008
  79        3PY        -0.00019   0.00020  -0.00018   0.00158  -0.00363
  80        3PZ         0.00689  -0.00747   0.00770  -0.00007  -0.00009
  81 9   N  1S          0.00958  -0.00560   0.01367   0.00115   0.00126
  82        2S         -0.02110   0.01566  -0.03123  -0.00290  -0.00327
  83        2PX         0.12058   0.04883  -0.11143  -0.00864  -0.00798
  84        2PY        -0.00187   0.00610   0.00773  -0.25792  -0.28904
  85        2PZ        -0.06670   0.14920  -0.03320   0.01606   0.01211
  86        3S         -0.04328   0.00176  -0.05307  -0.00380  -0.00486
  87        3PX         0.08723   0.03193  -0.08101  -0.00715  -0.00624
  88        3PY        -0.00193   0.00416   0.00639  -0.20003  -0.23352
  89        3PZ        -0.06235   0.08521  -0.00746   0.01248   0.00787
  90        4XX        -0.00813   0.00208   0.00807  -0.00003  -0.00047
  91        4YY        -0.00001   0.00064  -0.00044   0.00033   0.00034
  92        4ZZ         0.01091  -0.00331  -0.00745  -0.00055  -0.00021
  93        4XY        -0.00038   0.00022   0.00020   0.00447  -0.00749
  94        4XZ         0.00138   0.00977   0.00329   0.00038   0.00000
  95        4YZ         0.00069  -0.00069  -0.00018  -0.00346  -0.01255
  96 10  N  1S          0.01322  -0.00963  -0.00863  -0.00072  -0.00032
  97        2S         -0.02881   0.02076   0.01345   0.00175   0.00099
  98        2PX        -0.02179   0.05809  -0.14918  -0.00686  -0.00661
  99        2PY         0.00614  -0.00894  -0.00579   0.22319   0.17606
 100        2PZ         0.02335   0.14619  -0.00898   0.00448   0.00175
 101        3S         -0.05771   0.04662   0.06346   0.00334  -0.00044
 102        3PX        -0.02474   0.04858  -0.07992  -0.00451  -0.00617
 103        3PY         0.00422  -0.00635  -0.00407   0.16968   0.13467
 104        3PZ         0.00356   0.08264  -0.01491   0.00279   0.00046
 105        4XX        -0.00196  -0.00165   0.01264   0.00037   0.00042
 106        4YY        -0.00004  -0.00006  -0.00121  -0.00034  -0.00023
 107        4ZZ         0.00390  -0.00048  -0.01418   0.00007  -0.00003
 108        4XY         0.00028  -0.00046   0.00037   0.00594   0.00262
 109        4XZ         0.00610   0.00729   0.00386   0.00010  -0.00002
 110        4YZ         0.00001  -0.00028   0.00002   0.01142  -0.00701
 111 11  O  1S          0.06638   0.02105  -0.00672   0.00030  -0.00010
 112        2S         -0.15615  -0.05292   0.01545  -0.00066   0.00001
 113        2PX         0.16717   0.13349   0.07945   0.00407   0.00576
 114        2PY         0.00229  -0.00305  -0.00043  -0.16335   0.32582
 115        2PZ         0.34359   0.13561  -0.12600   0.00065  -0.00032
 116        3S         -0.25182  -0.07742   0.03164  -0.00212   0.00208
 117        3PX         0.09698   0.08520   0.05437   0.00246   0.00424
 118        3PY         0.00144  -0.00184  -0.00026  -0.11563   0.23746
 119        3PZ         0.20603   0.08730  -0.08019   0.00028   0.00022
 120        4XX        -0.00169   0.00173   0.00736   0.00023   0.00030
 121        4YY        -0.00779  -0.00447   0.00085   0.00008  -0.00025
 122        4ZZ         0.01976   0.00493  -0.01003  -0.00014  -0.00025
 123        4XY         0.00008  -0.00017  -0.00004  -0.00739   0.01301
 124        4XZ         0.01743   0.01043   0.00168   0.00025   0.00034
 125        4YZ         0.00008  -0.00028   0.00002  -0.01146   0.02176
 126 12  O  1S         -0.01468  -0.04467  -0.03534  -0.00054  -0.00005
 127        2S          0.03453   0.10713   0.08177   0.00128   0.00005
 128        2PX        -0.06459  -0.22142  -0.00345  -0.00178   0.00098
 129        2PY         0.00272  -0.00997  -0.00435   0.31897  -0.06680
 130        2PZ         0.03874   0.23561   0.30957   0.00842   0.00148
 131        3S          0.05057   0.16298   0.14255   0.00251   0.00067
 132        3PX        -0.03916  -0.14143   0.00455  -0.00113   0.00081
 133        3PY         0.00171  -0.00665  -0.00281   0.22085  -0.04552
 134        3PZ         0.02336   0.14922   0.19521   0.00550   0.00109
 135        4XX        -0.00156  -0.00400   0.00880   0.00007   0.00012
 136        4YY         0.00152   0.00627   0.00429   0.00042  -0.00007
 137        4ZZ        -0.00244  -0.00907  -0.02170  -0.00063  -0.00015
 138        4XY         0.00014  -0.00053  -0.00013   0.01495  -0.00302
 139        4XZ         0.00419   0.01780   0.00730   0.00038  -0.00002
 140        4YZ        -0.00021   0.00075   0.00038  -0.02314   0.00424
                          26        27        28        29        30
                           O         O         O         O         V
     EIGENVALUES --    -0.47572  -0.43601  -0.42320  -0.36397   0.10012
   1 1   C  1S          0.00434   0.01032   0.00018  -0.00054  -0.00030
   2        2S         -0.00993  -0.02386  -0.00038   0.00136  -0.00050
   3        2PX        -0.04362   0.01763   0.00082   0.00231   0.00170
   4        2PY        -0.00044  -0.00119  -0.02871  -0.02996  -0.07505
   5        2PZ        -0.00181  -0.06663  -0.00065  -0.00023  -0.00081
   6        3S         -0.01133  -0.03883  -0.00074   0.00079   0.00189
   7        3PX         0.12095  -0.07548  -0.00165   0.00056   0.00117
   8        3PY        -0.00139  -0.00041  -0.03640   0.00817  -0.10232
   9        3PZ        -0.08942   0.01376  -0.00484   0.00083   0.00355
  10        4XX        -0.04451   0.01268   0.00034  -0.00008  -0.00029
  11        4YY         0.00018   0.00000   0.00020   0.00012   0.00015
  12        4ZZ         0.04408  -0.01457  -0.00053  -0.00004  -0.00031
  13        4XY         0.00016   0.00010   0.00418  -0.02300  -0.02072
  14        4XZ        -0.02334   0.01676  -0.00016   0.00080   0.00025
  15        4YZ         0.00047   0.00052   0.04019  -0.01238   0.00596
  16 2   C  1S          0.01585   0.00695   0.00006   0.00019  -0.00028
  17        2S         -0.03449  -0.01651  -0.00004  -0.00060   0.00071
  18        2PX        -0.05376  -0.09557   0.00345  -0.00064   0.00288
  19        2PY        -0.00183  -0.00213  -0.08033   0.00348  -0.25195
  20        2PZ         0.06906  -0.04095   0.00169  -0.00002  -0.00115
  21        3S         -0.05973  -0.03658  -0.00198  -0.00030  -0.00185
  22        3PX        -0.01779   0.09066  -0.00328   0.00049  -0.00298
  23        3PY        -0.00090  -0.00230  -0.07748  -0.02745  -0.29419
  24        3PZ         0.03027   0.04366   0.00136   0.00172  -0.00329
  25        4XX        -0.01811  -0.04011   0.00089  -0.00014   0.00004
  26        4YY        -0.00064  -0.00190   0.00064   0.00023  -0.00009
  27        4ZZ         0.01703   0.04120  -0.00160  -0.00023  -0.00003
  28        4XY        -0.00001  -0.00030   0.00335   0.02628  -0.02981
  29        4XZ         0.00053   0.02353  -0.00035   0.00059  -0.00006
  30        4YZ        -0.00032  -0.00104  -0.03858  -0.01657   0.00641
  31 3   C  1S          0.00698   0.02774  -0.00051  -0.00026   0.00111
  32        2S         -0.01276  -0.04995   0.00058   0.00038  -0.00347
  33        2PX         0.09051   0.16121  -0.00472   0.00205  -0.00389
  34        2PY        -0.00035  -0.00254  -0.04359   0.35852  -0.20979
  35        2PZ        -0.01609  -0.02687  -0.00045   0.00773  -0.00002
  36        3S         -0.07111  -0.23335   0.00844   0.00009   0.00707
  37        3PX         0.03067   0.11159  -0.00522   0.00107  -0.00898
  38        3PY        -0.00044  -0.00181  -0.02584   0.31754  -0.39153
  39        3PZ         0.03626   0.03517  -0.00497   0.00282  -0.00858
  40        4XX        -0.00646  -0.00652   0.00019   0.00023   0.00023
  41        4YY         0.00042   0.00122  -0.00003  -0.00009  -0.00023
  42        4ZZ         0.00587   0.00576  -0.00017  -0.00006  -0.00003
  43        4XY         0.00009   0.00007   0.00138   0.00303   0.02921
  44        4XZ        -0.00080  -0.00205  -0.00004  -0.00011   0.00000
  45        4YZ        -0.00014  -0.00005  -0.00081  -0.01945  -0.01727
  46 4   C  1S         -0.01276  -0.00797   0.00011  -0.00055  -0.00167
  47        2S          0.02861   0.01460  -0.00001   0.00140   0.00369
  48        2PX        -0.09841  -0.03299   0.00079   0.00428   0.00584
  49        2PY         0.00225   0.00044  -0.01829   0.22234   0.38194
  50        2PZ        -0.01693   0.06377  -0.00085  -0.00452  -0.00335
  51        3S          0.06370   0.08701  -0.00602  -0.00051   0.00379
  52        3PX        -0.08043  -0.05071   0.00379   0.00458   0.02033
  53        3PY         0.00182   0.00077  -0.00375   0.19725   0.63208
  54        3PZ         0.03319   0.04175  -0.00109   0.00067  -0.00533
  55        4XX        -0.00995  -0.00459   0.00013   0.00031   0.00042
  56        4YY        -0.00110  -0.00067   0.00005   0.00016   0.00001
  57        4ZZ         0.01100   0.00403  -0.00024  -0.00034  -0.00060
  58        4XY         0.00021   0.00010  -0.00034  -0.00542   0.01147
  59        4XZ         0.00206   0.00247  -0.00013   0.00075  -0.00005
  60        4YZ         0.00006  -0.00016  -0.00298   0.03354  -0.00597
  61 5   H  1S         -0.06345  -0.02481   0.00102   0.00090  -0.00174
  62        2S         -0.05593  -0.02125   0.00045   0.00164  -0.01008
  63        3PX         0.00231   0.00057  -0.00007   0.00013   0.00042
  64        3PY        -0.00004  -0.00002  -0.00064   0.00506   0.01566
  65        3PZ        -0.00068   0.00114  -0.00001  -0.00016  -0.00008
  66 6   H  1S          0.01655  -0.00336  -0.00063   0.00246   0.00410
  67        2S          0.04314  -0.01957   0.00216   0.00089   0.00877
  68        3PX         0.00011   0.00063  -0.00014  -0.00032  -0.00045
  69        3PY         0.00005  -0.00003   0.00018  -0.00922  -0.00615
  70        3PZ         0.00002   0.00035  -0.00007   0.00059  -0.00001
  71 7   H  1S         -0.02300  -0.01248  -0.00102   0.00066  -0.00159
  72        2S         -0.05556  -0.03887   0.00283   0.00089  -0.00668
  73        3PX        -0.00025   0.00011  -0.00041   0.00004  -0.00021
  74        3PY         0.00001   0.00018   0.01127  -0.00033   0.00693
  75        3PZ         0.00043  -0.00086   0.00001   0.00011   0.00004
  76 8   H  1S          0.01669   0.01392  -0.00092   0.00072   0.00168
  77        2S          0.01383   0.03099   0.00066   0.00362   0.00439
  78        3PX         0.00058   0.00006  -0.00006   0.00001  -0.00024
  79        3PY         0.00001  -0.00004  -0.00133   0.00813  -0.00743
  80        3PZ        -0.00109  -0.00097   0.00001   0.00021  -0.00003
  81 9   N  1S          0.02424  -0.01326  -0.00008   0.00139   0.00153
  82        2S         -0.04424   0.02480   0.00018  -0.00379  -0.00416
  83        2PX         0.16344  -0.04151  -0.00132  -0.00659  -0.00467
  84        2PY        -0.00127   0.00114   0.02041  -0.30231  -0.14887
  85        2PZ         0.03845  -0.00192  -0.00035   0.01121   0.00414
  86        3S         -0.20089   0.10750   0.00204  -0.00273  -0.00701
  87        3PX         0.15850  -0.05395  -0.00221  -0.00558  -0.00861
  88        3PY        -0.00034   0.00051   0.02583  -0.31417  -0.25811
  89        3PZ         0.03024  -0.01898   0.00334   0.01076   0.00903
  90        4XX        -0.00238  -0.00221   0.00011  -0.00017   0.00006
[...]
  69        3PY        -0.00685  -0.03566   0.01679  -0.01942   0.01014
  70        3PZ        -0.13428  -0.40193   0.18526  -0.22683   0.07188
  71 7   H  1S         -0.86422  -0.41027   0.14616   0.22977   0.28175
  72        2S         -0.45545  -0.15262  -0.08176  -0.04340  -0.20260
  73        3PX        -0.87997  -0.36558   0.06854   0.24677   0.32463
  74        3PY        -0.02540  -0.01149   0.00283   0.00778   0.00883
  75        3PZ        -0.14194   0.00563   0.13500   0.01863  -0.05193
  76 8   H  1S          0.41291  -0.49301  -0.12264  -0.04799   0.10685
  77        2S          0.29756  -0.22787  -0.00079   0.00444  -0.03049
  78        3PX        -0.39585   0.27597   0.05153  -0.03801  -0.05667
  79        3PY         0.01381  -0.01385  -0.00146  -0.00081   0.00213
  80        3PZ        -0.39835   0.46711   0.03051   0.06492  -0.02115
  81 9   N  1S         -0.00787  -0.08521  -0.25544   0.27079  -0.05033
  82        2S          0.16644   0.11514   0.17196  -0.21263   0.18548
  83        2PX         0.15094   0.08312  -0.06889  -0.05906  -0.04610
  84        2PY        -0.00280  -0.01261   0.00586  -0.01007   0.00474
  85        2PZ         0.03304  -0.29182   0.00462  -0.11986   0.08936
  86        3S         -0.32809   0.99693   3.22013  -3.06238   0.24430
  87        3PX         0.21841   0.04681  -0.58666   0.05145   0.19039
  88        3PY        -0.00752  -0.02576   0.01502  -0.00926   0.00218
  89        3PZ        -0.06267  -0.27606   0.87394  -0.51494   0.05947
  90        4XX        -0.19220  -0.56792  -0.60382   0.79706  -0.13049
  91        4YY         0.00113  -0.32201  -0.82321   0.86808  -0.09137
  92        4ZZ         0.06547   0.06542  -0.85544   0.92776  -0.28558
  93        4XY        -0.00592  -0.02178   0.00716  -0.00513   0.00246
  94        4XZ        -0.17865  -0.76256   0.10491  -0.23842   0.13616
  95        4YZ         0.00789   0.03821  -0.01371   0.02153  -0.00935
  96 10  N  1S         -0.07743  -0.00879  -0.01298  -0.35015  -0.25477
  97        2S          0.23484   0.13622   0.18869   0.19071   0.39722
  98        2PX        -0.48332  -0.20753   0.04026   0.02919   0.14292
  99        2PY        -0.01027  -0.00257   0.00070   0.00566   0.00637
 100        2PZ        -0.08174  -0.00180  -0.07497  -0.00367   0.02525
 101        3S          0.96167  -0.13274  -0.49147   4.49465   2.40898
 102        3PX        -0.61302  -0.29259  -0.02910   0.91434  -0.07160
 103        3PY        -0.01786  -0.00911   0.00205  -0.01231  -0.00795
 104        3PZ         0.05397   0.09863  -0.78191   0.05769   0.21386
 105        4XX         0.74626   0.54663  -0.18553  -1.14629  -1.14651
 106        4YY        -0.38580  -0.02954   0.02163  -1.14557  -0.72081
 107        4ZZ        -0.80666  -0.67928  -0.10558  -0.89147  -0.67151
 108        4XY         0.03137   0.01407  -0.00393  -0.00906  -0.00892
 109        4XZ        -0.36574  -0.00971  -0.10867   0.00736   0.05148
 110        4YZ        -0.00448  -0.00017   0.00602  -0.00015  -0.00113
 111 11  O  1S          0.00528  -0.01867   0.10120   0.14068  -0.37928
 112        2S          0.15892   0.17178   0.14275   0.17077  -0.40281
 113        2PX         0.10795   0.07527   0.07205   0.11247  -0.08344
 114        2PY        -0.00069  -0.00027  -0.00014  -0.00076   0.00102
 115        2PZ         0.13812   0.14324   0.15576   0.11079  -0.15670
 116        3S         -0.14230   0.10808  -1.22478  -1.78933   5.11696
 117        3PX         0.02549   0.05280   0.01923  -0.46583   0.54525
 118        3PY        -0.00665  -0.00700   0.00248   0.00239  -0.00230
 119        3PZ        -0.05122  -0.02758  -0.15827  -0.11154   1.14998
 120        4XX         0.13506  -0.08140   0.35923   0.38025  -1.28718
 121        4YY         0.02717  -0.02955   0.36016   0.48371  -1.29574
 122        4ZZ        -0.01583   0.00603   0.36840   0.56539  -1.05289
 123        4XY        -0.00514  -0.00294   0.00157   0.00063   0.00108
 124        4XZ         0.16743   0.09545   0.07178  -0.05048   0.14084
 125        4YZ        -0.00775  -0.00663   0.00179  -0.00030   0.00069
 126 12  O  1S          0.00197  -0.02169  -0.30549  -0.03044  -0.19250
 127        2S          0.08767   0.11878  -0.30220   0.02174  -0.17385
 128        2PX         0.01631   0.08443  -0.15165   0.04281   0.00712
 129        2PY         0.00062   0.00126  -0.00189   0.00011   0.00034
 130        2PZ        -0.03370  -0.12177   0.18935  -0.00711   0.01524
 131        3S         -0.18683   0.23160   3.88964   0.22933   2.62199
 132        3PX        -0.12778   0.07149   0.65138  -0.17691   0.27735
 133        3PY        -0.00261  -0.00214   0.00618   0.00124   0.00557
 134        3PZ         0.04472  -0.03500  -0.56611  -0.26435  -0.72683
 135        4XX        -0.05440  -0.05031  -0.95728  -0.16366  -0.65947
 136        4YY         0.03066  -0.04756  -1.04789  -0.11092  -0.65991
 137        4ZZ         0.03629  -0.01007  -1.03987   0.01524  -0.43730
 138        4XY        -0.00103  -0.00002   0.00085  -0.00008   0.00152
 139        4XZ         0.03371  -0.12406  -0.07390  -0.02675  -0.13885
 140        4YZ         0.00154   0.00149  -0.00044  -0.00139  -0.00280
                         136       137       138       139       140
                           V         V         V         V         V
     EIGENVALUES --     4.63528   4.65299   4.88872   5.06690   5.17492
   1 1   C  1S          0.07539  -0.25144   0.00601  -0.33897   0.11515
   2        2S         -0.22800   1.81896   0.16886   1.09547  -0.72224
   3        2PX        -0.07961   0.04039  -0.02231   0.07518  -0.01286
   4        2PY         0.00082  -0.00098  -0.00019  -0.00168   0.00119
   5        2PZ         0.01914   0.03769  -0.02861   0.06210  -0.04092
   6        3S          1.54291  -0.26502  -0.74439  -0.65584  -1.32932
   7        3PX         1.32739  -1.44894  -0.48635   2.40257  -0.62229
   8        3PY        -0.00101  -0.00102  -0.01348  -0.00791  -0.00771
   9        3PZ        -0.31659  -1.40001  -2.62986   3.30031  -1.29196
  10        4XX         0.06511  -1.25849  -0.09263  -1.28107   0.71021
  11        4YY         0.22710  -0.89148  -0.00852  -0.99019   0.34343
  12        4ZZ         0.35072  -1.42841  -0.04103  -1.34925   0.70130
  13        4XY        -0.00279   0.00204  -0.00077   0.00091  -0.00011
  14        4XZ         0.01618  -0.09393  -0.13368  -0.08691  -0.02664
  15        4YZ        -0.00192  -0.00124  -0.00020  -0.00291   0.00530
  16 2   C  1S          0.14525  -0.15837   0.10759   0.28137   0.24442
  17        2S         -1.31732   1.07663  -0.14262  -0.87313  -1.14996
  18        2PX         0.01614   0.17995  -0.06497  -0.06670  -0.02331
  19        2PY        -0.00072   0.00038   0.00026  -0.00164  -0.00007
  20        2PZ        -0.01005   0.02676   0.02870   0.01744   0.04765
  21        3S         -0.17462  -1.31030  -0.91007   0.49647  -1.90674
  22        3PX         0.64225  -0.60011  -1.46500  -2.02064  -1.36058
  23        3PY         0.02810  -0.00955  -0.03025  -0.01357  -0.02172
  24        3PZ        -2.59225   0.78063   3.15108   2.18981   2.34150
  25        4XX         0.95290  -0.63616   0.22648   0.98107   1.20923
  26        4YY         0.59012  -0.56052   0.29864   0.84984   0.74751
  27        4ZZ         0.83457  -0.86111   0.34260   1.04538   1.16699
  28        4XY         0.00077   0.00007  -0.00111   0.00181   0.00131
  29        4XZ        -0.03458   0.02776   0.08651  -0.11061  -0.03710
  30        4YZ        -0.00159   0.00314  -0.00119  -0.00295  -0.00523
  31 3   C  1S         -0.16608  -0.30841   0.08981  -0.02076  -0.26031
  32        2S          1.26858   1.63598  -0.72978   0.05796   1.34765
  33        2PX         0.12441  -0.09192   0.14040   0.05330   0.00963
  34        2PY         0.00526   0.00215  -0.00466  -0.00113   0.00255
  35        2PZ        -0.10148  -0.05793  -0.12304   0.01732   0.05846
  36        3S         -1.21009   3.07327   1.04524   1.62356   3.35910
  37        3PX         0.04879  -0.59914  -0.61850  -0.38383  -0.70671
  38        3PY        -0.01931   0.00964   0.01921   0.00811   0.01286
  39        3PZ         1.64720  -1.35180  -1.37151  -0.85156  -1.67541
  40        4XX        -0.87744  -1.03136   0.45605  -0.22135  -1.25700
  41        4YY        -0.64894  -1.12252   0.30209  -0.07777  -0.86660
  42        4ZZ        -0.77721  -1.27639   0.81481  -0.01310  -1.29040
  43        4XY         0.00273   0.00292  -0.00324  -0.00028   0.00423
  44        4XZ        -0.10768  -0.08400   0.00827   0.07785  -0.04716
  45        4YZ         0.00217   0.00581  -0.00451  -0.00169   0.00910
  46 4   C  1S         -0.16439  -0.04401  -0.33873   0.04553   0.11423
  47        2S          0.95070   0.50728   1.89919  -0.08427  -0.75687
  48        2PX         0.01006  -0.07470   0.06587  -0.01437  -0.03492
  49        2PY         0.00024   0.00310   0.00617  -0.00083  -0.00047
  50        2PZ         0.22091   0.17387  -0.02630  -0.04752   0.04977
  51        3S          2.41734  -2.14473  -0.54107  -0.24584  -2.59583
  52        3PX        -1.07766   1.36579   0.23918   0.13008   0.91791
  53        3PY         0.01460  -0.01649  -0.00953  -0.00467  -0.00963
  54        3PZ         0.42282  -0.36383   0.27051  -0.39465  -0.21196
  55        4XX        -0.68697  -0.27234  -1.70787   0.13593   0.75348
  56        4YY        -0.60659  -0.16390  -1.16866   0.14057   0.35267
  57        4ZZ        -0.73322  -0.17646  -1.52000   0.09174   0.75179
  58        4XY         0.00469   0.00081   0.01572   0.00121  -0.00858
  59        4XZ        -0.13747  -0.08048   0.11308  -0.03489  -0.03778
  60        4YZ         0.00059   0.00130  -0.00384  -0.00098   0.00112
  61 5   H  1S          0.12119   0.01530   0.40417  -0.03929  -0.16641
  62        2S          0.15913  -0.36669  -0.06585  -0.03856  -0.07607
  63        3PX        -0.08524  -0.05587  -0.39490   0.02288   0.18504
  64        3PY         0.00267  -0.00008   0.01172  -0.00118  -0.00599
  65        3PZ        -0.01039   0.01023  -0.00144   0.01046  -0.00629
  66 6   H  1S         -0.39223   0.10686   0.03418  -0.21740   0.38570
  67        2S          0.03311   0.09704   0.09082  -0.06839   0.00456
  68        3PX         0.14187   0.04823   0.03515   0.04073  -0.14699
  69        3PY        -0.02961   0.00672  -0.00180  -0.01835   0.02951
  70        3PZ        -0.35137   0.02892  -0.09811  -0.15594   0.28272
  71 7   H  1S         -0.10392  -0.01166   0.31050  -0.12244   0.40805
  72        2S         -0.07682   0.08222   0.13345  -0.00203   0.03580
  73        3PX         0.01443  -0.15123   0.21208  -0.08159   0.33903
  74        3PY        -0.00256  -0.00113   0.01137  -0.00464   0.01444
  75        3PZ         0.10114   0.01352  -0.00508  -0.05441  -0.01672
  76 8   H  1S          0.06534   0.29269  -0.06410   0.00009   0.34664
  77        2S         -0.47552   0.19191   0.46804   0.21813   0.32674
  78        3PX        -0.07836  -0.12033   0.12779   0.03225  -0.13464
  79        3PY         0.00181   0.00861  -0.00244   0.00111   0.01155
  80        3PZ        -0.14656  -0.17018   0.16908   0.00883  -0.25101
  81 9   N  1S          0.31416  -0.11928  -0.02674   0.13455  -0.19414
  82        2S         -0.25094  -0.14325  -0.18534  -0.02572   0.17681
  83        2PX         0.03533  -0.05185   0.03782  -0.07745  -0.00672
  84        2PY        -0.01267  -0.00128  -0.00494  -0.00428   0.00992
  85        2PZ        -0.04357  -0.00866  -0.01006  -0.02533   0.01501
  86        3S         -3.89048   2.74387   1.23150  -2.44615   2.56552
  87        3PX         1.13134  -0.89989   0.09418   0.36677  -0.35664
  88        3PY        -0.01395   0.01795   0.01513  -0.00849   0.01343
  89        3PZ        -0.43546   0.90780   1.18104  -0.95254   0.81066
  90        4XX         0.97474  -0.02969   0.08371   0.62389  -0.79328
  91        4YY         0.90895  -0.39973  -0.13831   0.36207  -0.47573
  92        4ZZ         1.28734  -0.26566   0.21272   0.45539  -0.93477
  93        4XY        -0.01413   0.00158  -0.00218  -0.00808   0.01245
  94        4XZ        -0.11359   0.06511   0.08351  -0.04492   0.10177
  95        4YZ         0.02411  -0.00046   0.00403   0.01022  -0.02326
  96 10  N  1S          0.06330   0.00502  -0.27014   0.05912  -0.24469
  97        2S          0.11526  -0.23409  -0.09733  -0.05546   0.13654
  98        2PX         0.00759  -0.01160  -0.01929  -0.00630   0.00107
  99        2PY         0.00228  -0.00446   0.00295  -0.00171   0.00590
 100        2PZ         0.03086  -0.05165  -0.01490  -0.11410  -0.03090
 101        3S         -1.56968   1.14599   5.02502  -0.85731   3.67662
 102        3PX        -0.98723   0.93679   1.90538  -0.34384   1.28341
 103        3PY        -0.00438  -0.00071  -0.00139   0.00611   0.00023
 104        3PZ        -0.92194   0.17668  -0.20792  -0.61531   0.04147
 105        4XX         0.12051   0.23524  -0.88502   0.27167  -1.09040
 106        4YY         0.22255  -0.03248  -0.81587   0.14811  -0.63582
 107        4ZZ        -0.04076   0.38341  -0.72989   0.22747  -0.95234
 108        4XY         0.00247  -0.00045  -0.00853   0.00406  -0.01047
 109        4XZ        -0.03570  -0.05331  -0.01950  -0.20379  -0.00665
 110        4YZ         0.00274   0.00091   0.00085   0.00244   0.00120
 111 11  O  1S          0.05539   0.19876   0.19107  -0.38081   0.06304
 112        2S          0.04281   0.31186   0.37542  -0.77805   0.17054
 113        2PX         0.00356   0.14480   0.07945   0.01072  -0.02728
 114        2PY        -0.00007  -0.00145  -0.00179   0.00021  -0.00011
 115        2PZ        -0.02243   0.25740   0.09786   0.00360  -0.05494
 116        3S         -0.72089  -2.80014  -3.24646   6.88139  -1.37035
 117        3PX        -0.36691  -0.09362  -0.52297   0.94123  -0.24423
 118        3PY        -0.00077   0.00337   0.00809  -0.00632   0.00549
 119        3PZ        -0.11715  -0.36331  -0.48242   1.68226  -0.34615
 120        4XX         0.12981   0.72606   0.57315  -1.16186   0.13658
 121        4YY         0.18927   0.61500   0.63285  -1.33493   0.26995
 122        4ZZ         0.16885   0.76927   0.62580  -0.85450   0.06288
 123        4XY        -0.00014  -0.00062   0.00128  -0.00161   0.00247
 124        4XZ        -0.11659   0.10986  -0.05274   0.32237  -0.08945
 125        4YZ        -0.00189   0.00017   0.00105  -0.00298   0.00297
 126 12  O  1S         -0.29077   0.02584   0.28103   0.27265   0.15233
 127        2S         -0.39855   0.05336   0.52285   0.54835   0.37464
 128        2PX        -0.13665   0.06510   0.07635  -0.01263  -0.03508
 129        2PY        -0.00141   0.00027   0.00039   0.00104  -0.00093
 130        2PZ         0.19986  -0.09032  -0.09246   0.00130   0.06436
 131        3S          4.20872  -0.40570  -4.70582  -4.86127  -3.01062
 132        3PX         0.58684   0.06133  -0.74174  -0.72344  -0.53619
 133        3PY         0.00382   0.00271  -0.00670  -0.01459  -0.00571
 134        3PZ        -0.63289  -0.08558   0.87555   1.19521   0.74608
 135        4XX        -0.94958   0.12563   0.84861   0.81712   0.39378
 136        4YY        -0.95359   0.05180   0.95232   0.94188   0.58461
 137        4ZZ        -0.99826   0.19401   0.81980   0.62166   0.23627
 138        4XY        -0.00035   0.00142  -0.00117  -0.00272  -0.00142
 139        4XZ        -0.03628  -0.10641   0.14198   0.26915   0.20059
 140        4YZ         0.00117  -0.00218   0.00066   0.00415   0.00298
          Condensed to atoms (all electrons):
              1          2          3          4          5          6
  1  C    3.833139  -0.016387   0.001738  -0.039961   0.001549  -0.013030
  2  C   -0.016387   4.038130   0.418772  -0.051144   0.001436  -0.000188
  3  C    0.001738   0.418772   5.190594   0.563479  -0.017059   0.002002
  4  C   -0.039961  -0.051144   0.563479   4.675812   0.400032  -0.021153
  5  H    0.001549   0.001436  -0.017059   0.400032   0.457095  -0.003034
  6  H   -0.013030  -0.000188   0.002002  -0.021153  -0.003034   0.318217
  7  H   -0.014821  -0.013936   0.005399  -0.000879   0.000013  -0.000063
  8  H    0.000118  -0.017477   0.396664  -0.026622  -0.001273  -0.000071
  9  N    0.277800  -0.008208  -0.050437   0.264828  -0.039187   0.356014
 10  N    0.274156   0.236235  -0.106246   0.003991  -0.000339   0.003971
 11  O    0.669344   0.000281   0.000073   0.001443  -0.000065   0.004545
 12  O    0.000951   0.598074  -0.068529   0.003942  -0.000041   0.000003
              7          8          9         10         11         12
  1  C   -0.014821   0.000118   0.277800   0.274156   0.669344   0.000951
  2  C   -0.013936  -0.017477  -0.008208   0.236235   0.000281   0.598074
  3  C    0.005399   0.396664  -0.050437  -0.106246   0.000073  -0.068529
  4  C   -0.000879  -0.026622   0.264828   0.003991   0.001443   0.003942
  5  H    0.000013  -0.001273  -0.039187  -0.000339  -0.000065  -0.000041
  6  H   -0.000063  -0.000071   0.356014   0.003971   0.004545   0.000003
  7  H    0.311732  -0.000070   0.003301   0.343047   0.002334   0.005256
  8  H   -0.000070   0.444030   0.002132   0.003037   0.000002  -0.000354
  9  N    0.003301   0.002132   7.179589  -0.118551  -0.089809  -0.000020
 10  N    0.343047   0.003037  -0.118551   7.362789  -0.092408  -0.095775
 11  O    0.002334   0.000002  -0.089809  -0.092408   8.117178  -0.000020
 12  O    0.005256  -0.000354  -0.000020  -0.095775  -0.000020   8.194088
 Total atomic charges:
              1
  1  C    1.025405
  2  C    0.814412
  3  C   -0.336451
  4  C    0.226231
  5  H    0.200873
  6  H    0.352787
  7  H    0.358687
  8  H    0.199885
  9  N   -0.777452
 10  N   -0.813907
 11  O   -0.612897
 12  O   -0.637574
 Sum of Mulliken charges=   0.00000
 Atomic charges with hydrogens summed into heavy atoms:
              1
  1  C    1.025405
  2  C    0.814412
  3  C   -0.136566
  4  C    0.427105
  5  H    0.000000
  6  H    0.000000
  7  H    0.000000
  8  H    0.000000
  9  N   -0.424665
 10  N   -0.455219
 11  O   -0.612897
 12  O   -0.637574
 Sum of Mulliken charges=   0.00000
 Electronic spatial extent (au):  <R**2>=  1149.1906
 Charge=     0.0000 electrons
 Dipole moment (Debye):
    X=     5.0274    Y=    -0.1825    Z=    -1.5856  Tot=     5.2747
 Quadrupole moment (Debye-Ang):
   XX=   -33.8846   YY=   -45.8949   ZZ=   -63.1357
   XY=    -0.2934   XZ=     3.6356   YZ=     0.0661
 Octapole moment (Debye-Ang**2):
  XXX=   -30.9119  YYY=     0.3383  ZZZ=  -233.7253  XYY=   -20.6930
  XXY=    -0.8377  XXZ=   -49.1167  XZZ=    14.1060  YZZ=    -0.0522
  YYZ=   -57.5095  XYZ=     0.0143
 Hexadecapole moment (Debye-Ang**3):
 XXXX=  -310.1033 YYYY=   -41.0566 ZZZZ= -1275.9809 XXXY=    -1.2332
 XXXZ=   -53.0783 YYYX=     0.6210 YYYZ=     0.6984 ZZZX=    34.0634
 ZZZY=     0.7858 XXYY=   -80.6828 XXZZ=  -220.7790 YYZZ=  -179.2769
 XXYZ=    -0.1166 YYXZ=   -27.0190 ZZXY=    -0.9150
 N-N= 3.591760442912D+02 E-N=-1.686115288832D+03  KE= 4.114683495190D+02
 Leave Link  601 at Thu Mar  6 16:02:46 1997, MaxMem=    4000000 cpu:       2.2
 (Enter /cmsc/g94/l9999.exe)

 Test job not archived.
 1\1\GINC-CMSC\SP\RHF\6-31G(d,p)\C4H4N2O2\SCHAFT\06-Mar-1997\0\\#P HF/6
 -31G** NOSYMM GFINPUT IOP(6/7=3) 6D\\uracil 6-31g** single point\\0,1\
 C\C,1,2.455569\C,2,1.429569,1,88.777\C,3,1.340116,2,118.863,1,-0.151,0
 \H,4,1.08,3,123.242,2,-178.298,0\H,1,2.018792,2,114.268,3,2.174,0\H,2,
 2.022239,3,142.269,4,0.72,0\H,3,1.08,2,118.071,1,-178.472,0\N,1,1.3713
 06,2,87.394,3,0.234,0\N,1,1.376515,9,113.979,4,-0.036,0\O,1,1.215432,9
 ,123.707,4,179.727,0\O,2,1.245072,3,125.316,4,179.305,0\\Version=SGI-G
 94RevD.4\HF=-412.4750537\RMSD=3.512e-05\Dipole=1.9779152,-0.071796,-0.
 6238096\PG=C01 [X(C4H4N2O2)]\\@


 LOVE IS BLIND, THAT'S WHY ALL THE WORLD LOVES A LOUVER.
 Job cpu time:  0 days  0 hours  3 minutes 21.4 seconds.
 File lengths (MBytes):  RWF=   20 Int=    0 D2E=    0 Chk=    2 Scr=    1
 Normal termination of Gaussian 94
